LAMMPS data file. CGCMM style. atom_style full generated by VMD/TopoTools v1.5 on Mon Feb 16 23:13:50 PST 2015
 3 atoms
 0 bonds
 0 angles
 0 dihedrals
 0 impropers
 2 atom types
 0 bond types
 0 angle types
 0 dihedral types
 0 improper types
 0.0 18.6445  xlo xhi
 0.0 18.6445  ylo yhi
 0.0 18.6445  zlo zhi

 Masses

 1 1.007940 # H
 2 15.999400 # O

 Atoms

1 1 2 0.000000 2.034534 3.000488 0.699867 # O 
2 1 1 0.000000 1.575891 3.731566 0.453353 # H 
3 1 1 0.000000 2.922725 3.013713 0.238579 # H 
