LAMMPS (15 May 2015)
units		 real
atom_style	 full

read_data	 W1-monomer-data.water
  orthogonal box = (0 0 0) to (18.6445 18.6445 18.6445)
  1 by 1 by 1 MPI processor grid
  reading atoms ...
  3 atoms
  0 = max # of 1-2 neighbors
  0 = max # of 1-3 neighbors
  0 = max # of 1-4 neighbors
  1 = max # of special neighbors

pair_style   reax/c control.reaxc.water
pair_coeff   * * ffield_060614.reax H O

neighbor     30.0 nsq
neigh_modify once yes

fix          qeq all qeq/reax 1 0.0 10.0 1.0e-7 reax/c

neigh_modify delay 0 every 1 check yes
run 1 pre no post no
Neighbor list info ...
  2 neighbor list requests
  update every 1 steps, delay 0 steps, check yes
  master list distance cutoff = 40
WARNING: Proc sub-domain size < neighbor skin, could lead to lost atoms (../domain.cpp:833)
Memory usage per processor = 18.6056 Mbytes
Step Temp E_pair E_mol TotEng Press 
       0            0   -248.27593            0   -248.27593    -150.1282 
       1            0   -248.27593            0   -248.27593    -150.1282 
Loop time of 0.00107002 on 1 procs for 1 steps with 3 atoms
run 1 pre no post no
Step Temp E_pair E_mol TotEng Press 
       1            0   -248.27593            0   -248.27593    -150.1282 
       2            0   -248.27593            0   -248.27593   -150.12819 
Loop time of 0.000863075 on 1 procs for 1 steps with 3 atoms
run 1 pre no post no
Step Temp E_pair E_mol TotEng Press 
       2            0   -248.27593            0   -248.27593   -150.12819 
       3            0   -248.27593            0   -248.27593   -150.12819 
Loop time of 0.0010829 on 1 procs for 1 steps with 3 atoms
run 1 pre no post no
Step Temp E_pair E_mol TotEng Press 
       3            0   -248.27593            0   -248.27593   -150.12819 
       4            0   -248.27593            0   -248.27593    -150.1282 
Loop time of 0.000844002 on 1 procs for 1 steps with 3 atoms
run 1 pre no post no
Step Temp E_pair E_mol TotEng Press 
       4            0   -248.27593            0   -248.27593    -150.1282 
       5            0   -248.27593            0   -248.27593   -150.12819 
Loop time of 0.000844955 on 1 procs for 1 steps with 3 atoms
run 1 pre no post no
Step Temp E_pair E_mol TotEng Press 
       5            0   -248.27593            0   -248.27593   -150.12819 
       6            0   -248.27593            0   -248.27593   -150.12819 
Loop time of 0.000839949 on 1 procs for 1 steps with 3 atoms
run 1 pre no post no
Step Temp E_pair E_mol TotEng Press 
       6            0   -248.27593            0   -248.27593   -150.12819 
       7            0   -248.27593            0   -248.27593   -150.12819 
Loop time of 0.000893831 on 1 procs for 1 steps with 3 atoms
run 1 pre no post no
Step Temp E_pair E_mol TotEng Press 
       7            0   -248.27593            0   -248.27593   -150.12819 
       8            0   -248.27593            0   -248.27593   -150.12819 
Loop time of 0.00082612 on 1 procs for 1 steps with 3 atoms
run 1 pre no post no
Step Temp E_pair E_mol TotEng Press 
       8            0   -248.27593            0   -248.27593   -150.12819 
       9            0   -248.27593            0   -248.27593   -150.12819 
Loop time of 0.000858068 on 1 procs for 1 steps with 3 atoms
run 1 pre no post no
Step Temp E_pair E_mol TotEng Press 
       9            0   -248.27593            0   -248.27593   -150.12819 
      10            0   -248.27593            0   -248.27593   -150.12819 
Loop time of 0.000856161 on 1 procs for 1 steps with 3 atoms
run 1 pre no post no
Step Temp E_pair E_mol TotEng Press 
      10            0   -248.27593            0   -248.27593   -150.12819 
      11            0   -248.27593            0   -248.27593   -150.12818 
Loop time of 0.000832081 on 1 procs for 1 steps with 3 atoms
run 1 pre no post no
Step Temp E_pair E_mol TotEng Press 
      11            0   -248.27593            0   -248.27593   -150.12818 
      12            0   -248.27593            0   -248.27593   -150.12818 
Loop time of 0.000854969 on 1 procs for 1 steps with 3 atoms
run 1 pre no post no
Step Temp E_pair E_mol TotEng Press 
      12            0   -248.27593            0   -248.27593   -150.12818 
      13            0   -248.27593            0   -248.27593   -150.12817 
Loop time of 0.000846863 on 1 procs for 1 steps with 3 atoms
run 1 pre no post no
Step Temp E_pair E_mol TotEng Press 
      13            0   -248.27593            0   -248.27593   -150.12817 
      14            0   -248.27593            0   -248.27593   -150.12817 
Loop time of 0.000844955 on 1 procs for 1 steps with 3 atoms
run 1 pre no post no
Step Temp E_pair E_mol TotEng Press 
      14            0   -248.27593            0   -248.27593   -150.12817 
      15            0   -248.27593            0   -248.27593   -150.12818 
Loop time of 0.000848055 on 1 procs for 1 steps with 3 atoms
run 1 pre no post no
Step Temp E_pair E_mol TotEng Press 
      15            0   -248.27593            0   -248.27593   -150.12818 
      16            0   -248.27593            0   -248.27593   -150.12821 
Loop time of 0.00086689 on 1 procs for 1 steps with 3 atoms
run 1 pre no post no
Step Temp E_pair E_mol TotEng Press 
      16            0   -248.27593            0   -248.27593   -150.12821 
      17            0   -248.27593            0   -248.27593   -150.12822 
Loop time of 0.000849009 on 1 procs for 1 steps with 3 atoms
run 1 pre no post no
Step Temp E_pair E_mol TotEng Press 
      17            0   -248.27593            0   -248.27593   -150.12822 
      18            0   -248.27593            0   -248.27593   -150.12819 
Loop time of 0.000874043 on 1 procs for 1 steps with 3 atoms
run 1 pre no post no
Step Temp E_pair E_mol TotEng Press 
      18            0   -248.27593            0   -248.27593   -150.12819 
      19            0   -248.27593            0   -248.27593   -150.12815 
Loop time of 0.000858068 on 1 procs for 1 steps with 3 atoms
run 1 pre no post no
Step Temp E_pair E_mol TotEng Press 
      19            0   -248.27593            0   -248.27593   -150.12815 
      20            0   -248.27593            0   -248.27593   -150.12818 
Loop time of 0.000863075 on 1 procs for 1 steps with 3 atoms
run 1 pre no post no
Step Temp E_pair E_mol TotEng Press 
      20            0   -248.27593            0   -248.27593   -150.12818 
      21            0   -248.27593            0   -248.27593   -150.12825 
Loop time of 0.000839949 on 1 procs for 1 steps with 3 atoms
run 1 pre no post no
Step Temp E_pair E_mol TotEng Press 
      21            0   -248.27593            0   -248.27593   -150.12825 
      22            0   -248.27593            0   -248.27593   -150.12825 
Loop time of 0.000832081 on 1 procs for 1 steps with 3 atoms
run 1 pre no post no
Step Temp E_pair E_mol TotEng Press 
      22            0   -248.27593            0   -248.27593   -150.12825 
      23            0   -248.27593            0   -248.27593   -150.12812 
Loop time of 0.000869989 on 1 procs for 1 steps with 3 atoms
run 1 pre no post no
Step Temp E_pair E_mol TotEng Press 
      23            0   -248.27593            0   -248.27593   -150.12812 
      24            0   -248.27593            0   -248.27593   -150.12811 
Loop time of 0.000860929 on 1 procs for 1 steps with 3 atoms
run 1 pre no post no
Step Temp E_pair E_mol TotEng Press 
      24            0   -248.27593            0   -248.27593   -150.12811 
      25            0   -248.27593            0   -248.27593    -150.1283 
Loop time of 0.000818968 on 1 procs for 1 steps with 3 atoms
run 1 pre no post no
Step Temp E_pair E_mol TotEng Press 
      25            0   -248.27593            0   -248.27593    -150.1283 
      26            0   -248.27593            0   -248.27593   -150.12837 
Loop time of 0.000856161 on 1 procs for 1 steps with 3 atoms
run 1 pre no post no
Step Temp E_pair E_mol TotEng Press 
      26            0   -248.27593            0   -248.27593   -150.12837 
      27            0   -248.27593            0   -248.27593   -150.12812 
Loop time of 0.000844002 on 1 procs for 1 steps with 3 atoms
run 1 pre no post no
Step Temp E_pair E_mol TotEng Press 
      27            0   -248.27593            0   -248.27593   -150.12812 
      28            0   -248.27593            0   -248.27593   -150.12819 
Loop time of 0.000833988 on 1 procs for 1 steps with 3 atoms
run 1 pre no post no
Step Temp E_pair E_mol TotEng Press 
      28            0   -248.27593            0   -248.27593   -150.12819 
      29            0   -248.27593            0   -248.27593   -150.12819 
Loop time of 0.000864983 on 1 procs for 1 steps with 3 atoms
run 1 pre no post no
Step Temp E_pair E_mol TotEng Press 
      29            0   -248.27593            0   -248.27593   -150.12819 
      30            0   -248.27593            0   -248.27593   -150.12815 
Loop time of 0.000874043 on 1 procs for 1 steps with 3 atoms
run 1 pre no post no
Step Temp E_pair E_mol TotEng Press 
      30            0   -248.27593            0   -248.27593   -150.12815 
      31            0   -248.27593            0   -248.27593   -150.12815 
Loop time of 0.000851154 on 1 procs for 1 steps with 3 atoms
run 1 pre no post no
Step Temp E_pair E_mol TotEng Press 
      31            0   -248.27593            0   -248.27593   -150.12815 
      32            0   -248.27593            0   -248.27593   -150.12823 
Loop time of 0.00086689 on 1 procs for 1 steps with 3 atoms
run 1 pre no post no
Step Temp E_pair E_mol TotEng Press 
      32            0   -248.27593            0   -248.27593   -150.12823 
      33            0   -248.27593            0   -248.27593   -150.12828 
Loop time of 0.000849962 on 1 procs for 1 steps with 3 atoms
run 1 pre no post no
Step Temp E_pair E_mol TotEng Press 
      33            0   -248.27593            0   -248.27593   -150.12828 
      34            0   -248.27593            0   -248.27593   -150.12819 
Loop time of 0.000861883 on 1 procs for 1 steps with 3 atoms
run 1 pre no post no
Step Temp E_pair E_mol TotEng Press 
      34            0   -248.27593            0   -248.27593   -150.12819 
      35            0   -248.27593            0   -248.27593   -150.12813 
Loop time of 0.000849009 on 1 procs for 1 steps with 3 atoms
run 1 pre no post no
Step Temp E_pair E_mol TotEng Press 
      35            0   -248.27593            0   -248.27593   -150.12813 
      36            0   -248.27593            0   -248.27593   -150.12822 
Loop time of 0.000864029 on 1 procs for 1 steps with 3 atoms
run 1 pre no post no
Step Temp E_pair E_mol TotEng Press 
      36            0   -248.27593            0   -248.27593   -150.12822 
      37            0   -248.27593            0   -248.27593   -150.12832 
Loop time of 0.000854015 on 1 procs for 1 steps with 3 atoms
run 1 pre no post no
Step Temp E_pair E_mol TotEng Press 
      37            0   -248.27593            0   -248.27593   -150.12832 
      38            0   -248.27593            0   -248.27593   -150.12822 
Loop time of 0.000864983 on 1 procs for 1 steps with 3 atoms
run 1 pre no post no
Step Temp E_pair E_mol TotEng Press 
      38            0   -248.27593            0   -248.27593   -150.12822 
      39            0   -248.27593            0   -248.27593   -150.12805 
Loop time of 0.000848055 on 1 procs for 1 steps with 3 atoms
run 1 pre no post no
Step Temp E_pair E_mol TotEng Press 
      39            0   -248.27593            0   -248.27593   -150.12805 
      40            0   -248.27593            0   -248.27593   -150.12809 
Loop time of 0.000813007 on 1 procs for 1 steps with 3 atoms
run 1 pre no post no
Step Temp E_pair E_mol TotEng Press 
      40            0   -248.27593            0   -248.27593   -150.12809 
      41            0   -248.27593            0   -248.27593   -150.12835 
Loop time of 0.000851154 on 1 procs for 1 steps with 3 atoms
run 1 pre no post no
Step Temp E_pair E_mol TotEng Press 
      41            0   -248.27593            0   -248.27593   -150.12835 
      42            0   -248.27593            0   -248.27593   -150.12819 
Loop time of 0.000865221 on 1 procs for 1 steps with 3 atoms
run 1 pre no post no
Step Temp E_pair E_mol TotEng Press 
      42            0   -248.27593            0   -248.27593   -150.12819 
      43            0   -248.27593            0   -248.27593   -150.12819 
Loop time of 0.00081706 on 1 procs for 1 steps with 3 atoms
run 1 pre no post no
Step Temp E_pair E_mol TotEng Press 
      43            0   -248.27593            0   -248.27593   -150.12819 
      44            0   -248.27593            0   -248.27593   -150.12827 
Loop time of 0.000843048 on 1 procs for 1 steps with 3 atoms
run 1 pre no post no
Step Temp E_pair E_mol TotEng Press 
      44            0   -248.27593            0   -248.27593   -150.12827 
      45            0   -248.27593            0   -248.27593   -150.12826 
Loop time of 0.000848055 on 1 procs for 1 steps with 3 atoms
run 1 pre no post no
Step Temp E_pair E_mol TotEng Press 
      45            0   -248.27593            0   -248.27593   -150.12826 
      46            0   -248.27593            0   -248.27593    -150.1281 
Loop time of 0.000844955 on 1 procs for 1 steps with 3 atoms
run 1 pre no post no
Step Temp E_pair E_mol TotEng Press 
      46            0   -248.27593            0   -248.27593    -150.1281 
      47            0   -248.27593            0   -248.27593   -150.12803 
Loop time of 0.000859022 on 1 procs for 1 steps with 3 atoms
run 1 pre no post no
Step Temp E_pair E_mol TotEng Press 
      47            0   -248.27593            0   -248.27593   -150.12803 
      48            0   -248.27593            0   -248.27593   -150.12824 
Loop time of 0.000855207 on 1 procs for 1 steps with 3 atoms
run 1 pre no post no
Step Temp E_pair E_mol TotEng Press 
      48            0   -248.27593            0   -248.27593   -150.12824 
      49            0   -248.27593            0   -248.27593   -150.12819 
Loop time of 0.000854969 on 1 procs for 1 steps with 3 atoms
run 1 pre no post no
Step Temp E_pair E_mol TotEng Press 
      49            0   -248.27593            0   -248.27593   -150.12819 
      50            0   -248.27593            0   -248.27593   -150.12819 
Loop time of 0.000849962 on 1 procs for 1 steps with 3 atoms
run 1 pre no post no
Step Temp E_pair E_mol TotEng Press 
      50            0   -248.27593            0   -248.27593   -150.12819 
      51            0   -248.27593            0   -248.27593   -150.12821 
Loop time of 0.000849962 on 1 procs for 1 steps with 3 atoms
run 1 pre no post no
Step Temp E_pair E_mol TotEng Press 
      51            0   -248.27593            0   -248.27593   -150.12821 
      52            0   -248.27593            0   -248.27593   -150.12821 
Loop time of 0.000844002 on 1 procs for 1 steps with 3 atoms
run 1 pre no post no
Step Temp E_pair E_mol TotEng Press 
      52            0   -248.27593            0   -248.27593   -150.12821 
      53            0   -248.27593            0   -248.27593   -150.12815 
Loop time of 0.000817776 on 1 procs for 1 steps with 3 atoms
run 1 pre no post no
Step Temp E_pair E_mol TotEng Press 
      53            0   -248.27593            0   -248.27593   -150.12815 
      54            0   -248.27593            0   -248.27593   -150.12811 
Loop time of 0.000939131 on 1 procs for 1 steps with 3 atoms
run 1 pre no post no
Step Temp E_pair E_mol TotEng Press 
      54            0   -248.27593            0   -248.27593   -150.12811 
      55            0   -248.27593            0   -248.27593   -150.12818 
Loop time of 0.000855923 on 1 procs for 1 steps with 3 atoms
run 1 pre no post no
Step Temp E_pair E_mol TotEng Press 
      55            0   -248.27593            0   -248.27593   -150.12818 
      56            0   -248.27593            0   -248.27593   -150.12828 
Loop time of 0.000866175 on 1 procs for 1 steps with 3 atoms
run 1 pre no post no
Step Temp E_pair E_mol TotEng Press 
      56            0   -248.27593            0   -248.27593   -150.12828 
      57            0   -248.27593            0   -248.27593   -150.12827 
Loop time of 0.000855923 on 1 procs for 1 steps with 3 atoms
run 1 pre no post no
Step Temp E_pair E_mol TotEng Press 
      57            0   -248.27593            0   -248.27593   -150.12827 
      58            0   -248.27593            0   -248.27593   -150.12812 
Loop time of 0.000880003 on 1 procs for 1 steps with 3 atoms
run 1 pre no post no
Step Temp E_pair E_mol TotEng Press 
      58            0   -248.27593            0   -248.27593   -150.12812 
      59            0   -248.27593            0   -248.27593   -150.12807 
Loop time of 0.000849962 on 1 procs for 1 steps with 3 atoms
run 1 pre no post no
Step Temp E_pair E_mol TotEng Press 
      59            0   -248.27593            0   -248.27593   -150.12807 
      60            0   -248.27593            0   -248.27593   -150.12827 
Loop time of 0.000859022 on 1 procs for 1 steps with 3 atoms
run 1 pre no post no
Step Temp E_pair E_mol TotEng Press 
      60            0   -248.27593            0   -248.27593   -150.12827 
      61            0   -248.27593            0   -248.27593   -150.12819 
Loop time of 0.000849962 on 1 procs for 1 steps with 3 atoms
run 1 pre no post no
Step Temp E_pair E_mol TotEng Press 
      61            0   -248.27593            0   -248.27593   -150.12819 
      62            0   -248.27593            0   -248.27593   -150.12818 
Loop time of 0.000863075 on 1 procs for 1 steps with 3 atoms
run 1 pre no post no
Step Temp E_pair E_mol TotEng Press 
      62            0   -248.27593            0   -248.27593   -150.12818 
      63            0   -248.27593            0   -248.27593   -150.12822 
Loop time of 0.000852108 on 1 procs for 1 steps with 3 atoms
run 1 pre no post no
Step Temp E_pair E_mol TotEng Press 
      63            0   -248.27593            0   -248.27593   -150.12822 
      64            0   -248.27593            0   -248.27593   -150.12821 
Loop time of 0.000855923 on 1 procs for 1 steps with 3 atoms
run 1 pre no post no
Step Temp E_pair E_mol TotEng Press 
      64            0   -248.27593            0   -248.27593   -150.12821 
      65            0   -248.27593            0   -248.27593   -150.12814 
Loop time of 0.000850201 on 1 procs for 1 steps with 3 atoms
run 1 pre no post no
Step Temp E_pair E_mol TotEng Press 
      65            0   -248.27593            0   -248.27593   -150.12814 
      66            0   -248.27593            0   -248.27593   -150.12812 
Loop time of 0.000844002 on 1 procs for 1 steps with 3 atoms
run 1 pre no post no
Step Temp E_pair E_mol TotEng Press 
      66            0   -248.27593            0   -248.27593   -150.12812 
      67            0   -248.27593            0   -248.27593   -150.12821 
Loop time of 0.000847101 on 1 procs for 1 steps with 3 atoms
run 1 pre no post no
Step Temp E_pair E_mol TotEng Press 
      67            0   -248.27593            0   -248.27593   -150.12821 
      68            0   -248.27593            0   -248.27593   -150.12823 
Loop time of 0.000844955 on 1 procs for 1 steps with 3 atoms
run 1 pre no post no
Step Temp E_pair E_mol TotEng Press 
      68            0   -248.27593            0   -248.27593   -150.12823 
      69            0   -248.27593            0   -248.27593   -150.12811 
Loop time of 0.000849009 on 1 procs for 1 steps with 3 atoms
run 1 pre no post no
Step Temp E_pair E_mol TotEng Press 
      69            0   -248.27593            0   -248.27593   -150.12811 
      70            0   -248.27593            0   -248.27593   -150.12805 
Loop time of 0.000845909 on 1 procs for 1 steps with 3 atoms
run 1 pre no post no
Step Temp E_pair E_mol TotEng Press 
      70            0   -248.27593            0   -248.27593   -150.12805 
      71            0   -248.27593            0   -248.27593   -150.12822 
Loop time of 0.000849962 on 1 procs for 1 steps with 3 atoms
run 1 pre no post no
Step Temp E_pair E_mol TotEng Press 
      71            0   -248.27593            0   -248.27593   -150.12822 
      72            0   -248.27593            0   -248.27593   -150.12818 
Loop time of 0.000864983 on 1 procs for 1 steps with 3 atoms
run 1 pre no post no
Step Temp E_pair E_mol TotEng Press 
      72            0   -248.27593            0   -248.27593   -150.12818 
      73            0   -248.27593            0   -248.27593   -150.12809 
Loop time of 0.000838041 on 1 procs for 1 steps with 3 atoms
run 1 pre no post no
Step Temp E_pair E_mol TotEng Press 
      73            0   -248.27593            0   -248.27593   -150.12809 
      74            0   -248.27593            0   -248.27593   -150.12814 
Loop time of 0.000813007 on 1 procs for 1 steps with 3 atoms
run 1 pre no post no
Step Temp E_pair E_mol TotEng Press 
      74            0   -248.27593            0   -248.27593   -150.12814 
      75            0   -248.27593            0   -248.27593   -150.12832 
Loop time of 0.000898838 on 1 procs for 1 steps with 3 atoms
run 1 pre no post no
Step Temp E_pair E_mol TotEng Press 
      75            0   -248.27593            0   -248.27593   -150.12832 
      76            0   -248.27593            0   -248.27593   -150.12833 
Loop time of 0.000864029 on 1 procs for 1 steps with 3 atoms
run 1 pre no post no
Step Temp E_pair E_mol TotEng Press 
      76            0   -248.27593            0   -248.27593   -150.12833 
      77            0   -248.27593            0   -248.27593   -150.12807 
Loop time of 0.000844002 on 1 procs for 1 steps with 3 atoms
run 1 pre no post no
Step Temp E_pair E_mol TotEng Press 
      77            0   -248.27593            0   -248.27593   -150.12807 
      78            0   -248.27593            0   -248.27593   -150.12818 
Loop time of 0.000944853 on 1 procs for 1 steps with 3 atoms
run 1 pre no post no
Step Temp E_pair E_mol TotEng Press 
      78            0   -248.27593            0   -248.27593   -150.12818 
      79            0   -248.27593            0   -248.27593   -150.12818 
Loop time of 0.000852823 on 1 procs for 1 steps with 3 atoms
run 1 pre no post no
Step Temp E_pair E_mol TotEng Press 
      79            0   -248.27593            0   -248.27593   -150.12818 
      80            0   -248.27593            0   -248.27593   -150.12813 
Loop time of 0.000857115 on 1 procs for 1 steps with 3 atoms
run 1 pre no post no
Step Temp E_pair E_mol TotEng Press 
      80            0   -248.27593            0   -248.27593   -150.12813 
      81            0   -248.27593            0   -248.27593   -150.12814 
Loop time of 0.000849962 on 1 procs for 1 steps with 3 atoms
run 1 pre no post no
Step Temp E_pair E_mol TotEng Press 
      81            0   -248.27593            0   -248.27593   -150.12814 
      82            0   -248.27593            0   -248.27593   -150.12824 
Loop time of 0.000844955 on 1 procs for 1 steps with 3 atoms
run 1 pre no post no
Step Temp E_pair E_mol TotEng Press 
      82            0   -248.27593            0   -248.27593   -150.12824 
      83            0   -248.27593            0   -248.27593    -150.1283 
Loop time of 0.000844955 on 1 procs for 1 steps with 3 atoms
run 1 pre no post no
Step Temp E_pair E_mol TotEng Press 
      83            0   -248.27593            0   -248.27593    -150.1283 
      84            0   -248.27593            0   -248.27593   -150.12819 
Loop time of 0.000844002 on 1 procs for 1 steps with 3 atoms
run 1 pre no post no
Step Temp E_pair E_mol TotEng Press 
      84            0   -248.27593            0   -248.27593   -150.12819 
      85            0   -248.27593            0   -248.27593    -150.1281 
Loop time of 0.000848055 on 1 procs for 1 steps with 3 atoms
run 1 pre no post no
Step Temp E_pair E_mol TotEng Press 
      85            0   -248.27593            0   -248.27593    -150.1281 
      86            0   -248.27593            0   -248.27593    -150.1282 
Loop time of 0.000840902 on 1 procs for 1 steps with 3 atoms
run 1 pre no post no
Step Temp E_pair E_mol TotEng Press 
      86            0   -248.27593            0   -248.27593    -150.1282 
      87            0   -248.27593            0   -248.27593   -150.12818 
Loop time of 0.000842094 on 1 procs for 1 steps with 3 atoms
run 1 pre no post no
Step Temp E_pair E_mol TotEng Press 
      87            0   -248.27593            0   -248.27593   -150.12818 
      88            0   -248.27593            0   -248.27593   -150.12809 
Loop time of 0.000837088 on 1 procs for 1 steps with 3 atoms
run 1 pre no post no
Step Temp E_pair E_mol TotEng Press 
      88            0   -248.27593            0   -248.27593   -150.12809 
      89            0   -248.27593            0   -248.27593   -150.12812 
Loop time of 0.000836849 on 1 procs for 1 steps with 3 atoms
run 1 pre no post no
Step Temp E_pair E_mol TotEng Press 
      89            0   -248.27593            0   -248.27593   -150.12812 
      90            0   -248.27593            0   -248.27593   -150.12826 
Loop time of 0.000920057 on 1 procs for 1 steps with 3 atoms
run 1 pre no post no
Step Temp E_pair E_mol TotEng Press 
      90            0   -248.27593            0   -248.27593   -150.12826 
      91            0   -248.27593            0   -248.27593    -150.1283 
Loop time of 0.000849962 on 1 procs for 1 steps with 3 atoms
run 1 pre no post no
Step Temp E_pair E_mol TotEng Press 
      91            0   -248.27593            0   -248.27593    -150.1283 
      92            0   -248.27593            0   -248.27593    -150.1281 
Loop time of 0.000845909 on 1 procs for 1 steps with 3 atoms
run 1 pre no post no
Step Temp E_pair E_mol TotEng Press 
      92            0   -248.27593            0   -248.27593    -150.1281 
      93            0   -248.27593            0   -248.27593   -150.12817 
Loop time of 0.000843048 on 1 procs for 1 steps with 3 atoms
run 1 pre no post no
Step Temp E_pair E_mol TotEng Press 
      93            0   -248.27593            0   -248.27593   -150.12817 
      94            0   -248.27593            0   -248.27593   -150.12817 
Loop time of 0.000857115 on 1 procs for 1 steps with 3 atoms
run 1 pre no post no
Step Temp E_pair E_mol TotEng Press 
      94            0   -248.27593            0   -248.27593   -150.12817 
      95            0   -248.27593            0   -248.27593   -150.12814 
Loop time of 0.000847101 on 1 procs for 1 steps with 3 atoms
run 1 pre no post no
Step Temp E_pair E_mol TotEng Press 
      95            0   -248.27593            0   -248.27593   -150.12814 
      96            0   -248.27593            0   -248.27593   -150.12814 
Loop time of 0.000808954 on 1 procs for 1 steps with 3 atoms
run 1 pre no post no
Step Temp E_pair E_mol TotEng Press 
      96            0   -248.27593            0   -248.27593   -150.12814 
      97            0   -248.27593            0   -248.27593    -150.1282 
Loop time of 0.000863075 on 1 procs for 1 steps with 3 atoms
run 1 pre no post no
Step Temp E_pair E_mol TotEng Press 
      97            0   -248.27593            0   -248.27593    -150.1282 
      98            0   -248.27593            0   -248.27593   -150.12832 
Loop time of 0.000840902 on 1 procs for 1 steps with 3 atoms
run 1 pre no post no
Step Temp E_pair E_mol TotEng Press 
      98            0   -248.27593            0   -248.27593   -150.12832 
      99            0   -248.27593            0   -248.27593   -150.12828 
Loop time of 0.000847101 on 1 procs for 1 steps with 3 atoms
run 1 pre no post no
Step Temp E_pair E_mol TotEng Press 
      99            0   -248.27593            0   -248.27593   -150.12828 
     100            0   -248.27593            0   -248.27593   -150.12805 
Loop time of 0.000865936 on 1 procs for 1 steps with 3 atoms
run 1 pre no post no
Step Temp E_pair E_mol TotEng Press 
     100            0   -248.27593            0   -248.27593   -150.12805 
     101            0   -248.27593            0   -248.27593   -150.12817 
Loop time of 0.000849009 on 1 procs for 1 steps with 3 atoms
run 1 pre no post no
Step Temp E_pair E_mol TotEng Press 
     101            0   -248.27593            0   -248.27593   -150.12817 
     102            0   -248.27593            0   -248.27593   -150.12817 
Loop time of 0.000858784 on 1 procs for 1 steps with 3 atoms
run 1 pre no post no
Step Temp E_pair E_mol TotEng Press 
     102            0   -248.27593            0   -248.27593   -150.12817 
     103            0   -248.27593            0   -248.27593   -150.12813 
Loop time of 0.000849009 on 1 procs for 1 steps with 3 atoms
run 1 pre no post no
Step Temp E_pair E_mol TotEng Press 
     103            0   -248.27593            0   -248.27593   -150.12813 
     104            0   -248.27593            0   -248.27593   -150.12815 
Loop time of 0.000848055 on 1 procs for 1 steps with 3 atoms
run 1 pre no post no
Step Temp E_pair E_mol TotEng Press 
     104            0   -248.27593            0   -248.27593   -150.12815 
     105            0   -248.27593            0   -248.27593   -150.12825 
Loop time of 0.000849962 on 1 procs for 1 steps with 3 atoms
run 1 pre no post no
Step Temp E_pair E_mol TotEng Press 
     105            0   -248.27593            0   -248.27593   -150.12825 
     106            0   -248.27593            0   -248.27593   -150.12829 
Loop time of 0.000845194 on 1 procs for 1 steps with 3 atoms
run 1 pre no post no
Step Temp E_pair E_mol TotEng Press 
     106            0   -248.27593            0   -248.27593   -150.12829 
     107            0   -248.27593            0   -248.27593   -150.12817 
Loop time of 0.000853062 on 1 procs for 1 steps with 3 atoms
run 1 pre no post no
Step Temp E_pair E_mol TotEng Press 
     107            0   -248.27593            0   -248.27593   -150.12817 
     108            0   -248.27593            0   -248.27593   -150.12816 
Loop time of 0.000849009 on 1 procs for 1 steps with 3 atoms
run 1 pre no post no
Step Temp E_pair E_mol TotEng Press 
     108            0   -248.27593            0   -248.27593   -150.12816 
     109            0   -248.27593            0   -248.27593   -150.12834 
Loop time of 0.000850201 on 1 procs for 1 steps with 3 atoms
run 1 pre no post no
Step Temp E_pair E_mol TotEng Press 
     109            0   -248.27593            0   -248.27593   -150.12834 
     110            0   -248.27593            0   -248.27593    -150.1282 
Loop time of 0.000849962 on 1 procs for 1 steps with 3 atoms
run 1 pre no post no
Step Temp E_pair E_mol TotEng Press 
     110            0   -248.27593            0   -248.27593    -150.1282 
     111            0   -248.27593            0   -248.27593   -150.12818 
Loop time of 0.000871897 on 1 procs for 1 steps with 3 atoms
run 1 pre no post no
Step Temp E_pair E_mol TotEng Press 
     111            0   -248.27593            0   -248.27593   -150.12818 
     112            0   -248.27593            0   -248.27593   -150.12822 
Loop time of 0.000926018 on 1 procs for 1 steps with 3 atoms
run 1 pre no post no
Step Temp E_pair E_mol TotEng Press 
     112            0   -248.27593            0   -248.27593   -150.12822 
     113            0   -248.27593            0   -248.27593   -150.12822 
Loop time of 0.000824213 on 1 procs for 1 steps with 3 atoms
run 1 pre no post no
Step Temp E_pair E_mol TotEng Press 
     113            0   -248.27593            0   -248.27593   -150.12822 
     114            0   -248.27593            0   -248.27593   -150.12815 
Loop time of 0.000860929 on 1 procs for 1 steps with 3 atoms
run 1 pre no post no
Step Temp E_pair E_mol TotEng Press 
     114            0   -248.27593            0   -248.27593   -150.12815 
     115            0   -248.27593            0   -248.27593   -150.12816 
Loop time of 0.000850916 on 1 procs for 1 steps with 3 atoms
run 1 pre no post no
Step Temp E_pair E_mol TotEng Press 
     115            0   -248.27593            0   -248.27593   -150.12816 
     116            0   -248.27593            0   -248.27593   -150.12829 
Loop time of 0.000846863 on 1 procs for 1 steps with 3 atoms
run 1 pre no post no
Step Temp E_pair E_mol TotEng Press 
     116            0   -248.27593            0   -248.27593   -150.12829 
     117            0   -248.27593            0   -248.27593   -150.12829 
Loop time of 0.00085187 on 1 procs for 1 steps with 3 atoms
run 1 pre no post no
Step Temp E_pair E_mol TotEng Press 
     117            0   -248.27593            0   -248.27593   -150.12829 
     118            0   -248.27593            0   -248.27593     -150.128 
Loop time of 0.000846148 on 1 procs for 1 steps with 3 atoms
run 1 pre no post no
Step Temp E_pair E_mol TotEng Press 
     118            0   -248.27593            0   -248.27593     -150.128 
     119            0   -248.27593            0   -248.27593   -150.12812 
Loop time of 0.000856876 on 1 procs for 1 steps with 3 atoms
run 1 pre no post no
Step Temp E_pair E_mol TotEng Press 
     119            0   -248.27593            0   -248.27593   -150.12812 
     120            0   -248.27593            0   -248.27593   -150.12825 
Loop time of 0.000867128 on 1 procs for 1 steps with 3 atoms
run 1 pre no post no
Step Temp E_pair E_mol TotEng Press 
     120            0   -248.27593            0   -248.27593   -150.12825 
     121            0   -248.27593            0   -248.27593   -150.12823 
Loop time of 0.000814915 on 1 procs for 1 steps with 3 atoms
run 1 pre no post no
Step Temp E_pair E_mol TotEng Press 
     121            0   -248.27593            0   -248.27593   -150.12823 
     122            0   -248.27593            0   -248.27593   -150.12814 
Loop time of 0.000854969 on 1 procs for 1 steps with 3 atoms
run 1 pre no post no
Step Temp E_pair E_mol TotEng Press 
     122            0   -248.27593            0   -248.27593   -150.12814 
     123            0   -248.27593            0   -248.27593   -150.12819 
Loop time of 0.000854969 on 1 procs for 1 steps with 3 atoms
run 1 pre no post no
Step Temp E_pair E_mol TotEng Press 
     123            0   -248.27593            0   -248.27593   -150.12819 
     124            0   -248.27593            0   -248.27593   -150.12829 
Loop time of 0.000850916 on 1 procs for 1 steps with 3 atoms
run 1 pre no post no
Step Temp E_pair E_mol TotEng Press 
     124            0   -248.27593            0   -248.27593   -150.12829 
     125            0   -248.27593            0   -248.27593   -150.12822 
Loop time of 0.000848055 on 1 procs for 1 steps with 3 atoms
run 1 pre no post no
Step Temp E_pair E_mol TotEng Press 
     125            0   -248.27593            0   -248.27593   -150.12822 
     126            0   -248.27593            0   -248.27593    -150.1282 
Loop time of 0.000859022 on 1 procs for 1 steps with 3 atoms
run 1 pre no post no
Step Temp E_pair E_mol TotEng Press 
     126            0   -248.27593            0   -248.27593    -150.1282 
     127            0   -248.27593            0   -248.27593   -150.12821 
Loop time of 0.000853062 on 1 procs for 1 steps with 3 atoms
run 1 pre no post no
Step Temp E_pair E_mol TotEng Press 
     127            0   -248.27593            0   -248.27593   -150.12821 
     128            0   -248.27593            0   -248.27593   -150.12811 
Loop time of 0.000845909 on 1 procs for 1 steps with 3 atoms
run 1 pre no post no
Step Temp E_pair E_mol TotEng Press 
     128            0   -248.27593            0   -248.27593   -150.12811 
     129            0   -248.27593            0   -248.27593   -150.12796 
Loop time of 0.000850916 on 1 procs for 1 steps with 3 atoms
run 1 pre no post no
Step Temp E_pair E_mol TotEng Press 
     129            0   -248.27593            0   -248.27593   -150.12796 
     130            0   -248.27593            0   -248.27593   -150.12806 
Loop time of 0.000883102 on 1 procs for 1 steps with 3 atoms
run 1 pre no post no
Step Temp E_pair E_mol TotEng Press 
     130            0   -248.27593            0   -248.27593   -150.12806 
     131            0   -248.27593            0   -248.27593   -150.12838 
Loop time of 0.000822067 on 1 procs for 1 steps with 3 atoms
run 1 pre no post no
Step Temp E_pair E_mol TotEng Press 
     131            0   -248.27593            0   -248.27593   -150.12838 
     132            0   -248.27593            0   -248.27593   -150.12833 
Loop time of 0.000861883 on 1 procs for 1 steps with 3 atoms
run 1 pre no post no
Step Temp E_pair E_mol TotEng Press 
     132            0   -248.27593            0   -248.27593   -150.12833 
     133            0   -248.27593            0   -248.27593   -150.12824 
Loop time of 0.000856876 on 1 procs for 1 steps with 3 atoms
run 1 pre no post no
Step Temp E_pair E_mol TotEng Press 
     133            0   -248.27593            0   -248.27593   -150.12824 
     134            0   -248.27593            0   -248.27593   -150.12818 
Loop time of 0.000861883 on 1 procs for 1 steps with 3 atoms
run 1 pre no post no
Step Temp E_pair E_mol TotEng Press 
     134            0   -248.27593            0   -248.27593   -150.12818 
     135            0   -248.27593            0   -248.27593   -150.12817 
Loop time of 0.000854015 on 1 procs for 1 steps with 3 atoms
run 1 pre no post no
Step Temp E_pair E_mol TotEng Press 
     135            0   -248.27593            0   -248.27593   -150.12817 
     136            0   -248.27593            0   -248.27593   -150.12815 
Loop time of 0.000862837 on 1 procs for 1 steps with 3 atoms
run 1 pre no post no
Step Temp E_pair E_mol TotEng Press 
     136            0   -248.27593            0   -248.27593   -150.12815 
     137            0   -248.27593            0   -248.27593   -150.12815 
Loop time of 0.000848055 on 1 procs for 1 steps with 3 atoms
run 1 pre no post no
Step Temp E_pair E_mol TotEng Press 
     137            0   -248.27593            0   -248.27593   -150.12815 
     138            0   -248.27593            0   -248.27593   -150.12824 
Loop time of 0.000812054 on 1 procs for 1 steps with 3 atoms
run 1 pre no post no
Step Temp E_pair E_mol TotEng Press 
     138            0   -248.27593            0   -248.27593   -150.12824 
     139            0   -248.27593            0   -248.27593    -150.1282 
Loop time of 0.000856161 on 1 procs for 1 steps with 3 atoms
run 1 pre no post no
Step Temp E_pair E_mol TotEng Press 
     139            0   -248.27593            0   -248.27593    -150.1282 
     140            0   -248.27593            0   -248.27593   -150.12795 
Loop time of 0.000910997 on 1 procs for 1 steps with 3 atoms
run 1 pre no post no
Step Temp E_pair E_mol TotEng Press 
     140            0   -248.27593            0   -248.27593   -150.12795 
     141            0   -248.27593            0   -248.27593   -150.12817 
Loop time of 0.000843048 on 1 procs for 1 steps with 3 atoms
run 1 pre no post no
Step Temp E_pair E_mol TotEng Press 
     141            0   -248.27593            0   -248.27593   -150.12817 
     142            0   -248.27593            0   -248.27593   -150.12829 
Loop time of 0.000824213 on 1 procs for 1 steps with 3 atoms
run 1 pre no post no
Step Temp E_pair E_mol TotEng Press 
     142            0   -248.27593            0   -248.27593   -150.12829 
     143            0   -248.27593            0   -248.27593   -150.12819 
Loop time of 0.000845909 on 1 procs for 1 steps with 3 atoms
run 1 pre no post no
Step Temp E_pair E_mol TotEng Press 
     143            0   -248.27593            0   -248.27593   -150.12819 
     144            0   -248.27593            0   -248.27593   -150.12808 
Loop time of 0.000864029 on 1 procs for 1 steps with 3 atoms
run 1 pre no post no
Step Temp E_pair E_mol TotEng Press 
     144            0   -248.27593            0   -248.27593   -150.12808 
     145            0   -248.27593            0   -248.27593   -150.12822 
Loop time of 0.000854015 on 1 procs for 1 steps with 3 atoms
run 1 pre no post no
Step Temp E_pair E_mol TotEng Press 
     145            0   -248.27593            0   -248.27593   -150.12822 
     146            0   -248.27593            0   -248.27593   -150.12838 
Loop time of 0.000859976 on 1 procs for 1 steps with 3 atoms
run 1 pre no post no
Step Temp E_pair E_mol TotEng Press 
     146            0   -248.27593            0   -248.27593   -150.12838 
     147            0   -248.27593            0   -248.27593   -150.12829 
Loop time of 0.000854015 on 1 procs for 1 steps with 3 atoms
run 1 pre no post no
Step Temp E_pair E_mol TotEng Press 
     147            0   -248.27593            0   -248.27593   -150.12829 
     148            0   -248.27593            0   -248.27593   -150.12822 
Loop time of 0.000855923 on 1 procs for 1 steps with 3 atoms
run 1 pre no post no
Step Temp E_pair E_mol TotEng Press 
     148            0   -248.27593            0   -248.27593   -150.12822 
     149            0   -248.27593            0   -248.27593   -150.12814 
Loop time of 0.000857115 on 1 procs for 1 steps with 3 atoms
run 1 pre no post no
Step Temp E_pair E_mol TotEng Press 
     149            0   -248.27593            0   -248.27593   -150.12814 
     150            0   -248.27593            0   -248.27593   -150.12808 
Loop time of 0.00100613 on 1 procs for 1 steps with 3 atoms
run 1 pre no post no
Step Temp E_pair E_mol TotEng Press 
     150            0   -248.27593            0   -248.27593   -150.12808 
     151            0   -248.27593            0   -248.27593   -150.12817 
Loop time of 0.000854015 on 1 procs for 1 steps with 3 atoms
run 1 pre no post no
Step Temp E_pair E_mol TotEng Press 
     151            0   -248.27593            0   -248.27593   -150.12817 
     152            0   -248.27593            0   -248.27593   -150.12838 
Loop time of 0.000859022 on 1 procs for 1 steps with 3 atoms
run 1 pre no post no
Step Temp E_pair E_mol TotEng Press 
     152            0   -248.27593            0   -248.27593   -150.12838 
     153            0   -248.27593            0   -248.27593   -150.12831 
Loop time of 0.000823975 on 1 procs for 1 steps with 3 atoms
run 1 pre no post no
Step Temp E_pair E_mol TotEng Press 
     153            0   -248.27593            0   -248.27593   -150.12831 
     154            0   -248.27593            0   -248.27593   -150.12814 
Loop time of 0.000863791 on 1 procs for 1 steps with 3 atoms
run 1 pre no post no
Step Temp E_pair E_mol TotEng Press 
     154            0   -248.27593            0   -248.27593   -150.12814 
     155            0   -248.27593            0   -248.27593    -150.1281 
Loop time of 0.000849009 on 1 procs for 1 steps with 3 atoms
run 1 pre no post no
Step Temp E_pair E_mol TotEng Press 
     155            0   -248.27593            0   -248.27593    -150.1281 
     156            0   -248.27593            0   -248.27593   -150.12829 
Loop time of 0.000849009 on 1 procs for 1 steps with 3 atoms
run 1 pre no post no
Step Temp E_pair E_mol TotEng Press 
     156            0   -248.27593            0   -248.27593   -150.12829 
     157            0   -248.27593            0   -248.27593   -150.12823 
Loop time of 0.000874996 on 1 procs for 1 steps with 3 atoms
run 1 pre no post no
Step Temp E_pair E_mol TotEng Press 
     157            0   -248.27593            0   -248.27593   -150.12823 
     158            0   -248.27593            0   -248.27593    -150.1282 
Loop time of 0.000857115 on 1 procs for 1 steps with 3 atoms
run 1 pre no post no
Step Temp E_pair E_mol TotEng Press 
     158            0   -248.27593            0   -248.27593    -150.1282 
     159            0   -248.27593            0   -248.27593   -150.12821 
Loop time of 0.000844955 on 1 procs for 1 steps with 3 atoms
run 1 pre no post no
Step Temp E_pair E_mol TotEng Press 
     159            0   -248.27593            0   -248.27593   -150.12821 
     160            0   -248.27593            0   -248.27593    -150.1282 
Loop time of 0.000815868 on 1 procs for 1 steps with 3 atoms
run 1 pre no post no
Step Temp E_pair E_mol TotEng Press 
     160            0   -248.27593            0   -248.27593    -150.1282 
     161            0   -248.27593            0   -248.27593   -150.12816 
Loop time of 0.000888109 on 1 procs for 1 steps with 3 atoms
run 1 pre no post no
Step Temp E_pair E_mol TotEng Press 
     161            0   -248.27593            0   -248.27593   -150.12816 
     162            0   -248.27593            0   -248.27593   -150.12805 
Loop time of 0.000846863 on 1 procs for 1 steps with 3 atoms
run 1 pre no post no
Step Temp E_pair E_mol TotEng Press 
     162            0   -248.27593            0   -248.27593   -150.12805 
     163            0   -248.27593            0   -248.27593   -150.12815 
Loop time of 0.000849962 on 1 procs for 1 steps with 3 atoms
run 1 pre no post no
Step Temp E_pair E_mol TotEng Press 
     163            0   -248.27593            0   -248.27593   -150.12815 
     164            0   -248.27594            0   -248.27594   -150.12843 
Loop time of 0.000867844 on 1 procs for 1 steps with 3 atoms
run 1 pre no post no
Step Temp E_pair E_mol TotEng Press 
     164            0   -248.27594            0   -248.27594   -150.12843 
     165            0   -248.27593            0   -248.27593   -150.12825 
Loop time of 0.000854015 on 1 procs for 1 steps with 3 atoms
run 1 pre no post no
Step Temp E_pair E_mol TotEng Press 
     165            0   -248.27593            0   -248.27593   -150.12825 
     166            0   -248.27593            0   -248.27593   -150.12821 
Loop time of 0.000846148 on 1 procs for 1 steps with 3 atoms
run 1 pre no post no
Step Temp E_pair E_mol TotEng Press 
     166            0   -248.27593            0   -248.27593   -150.12821 
     167            0   -248.27593            0   -248.27593   -150.12813 
Loop time of 0.000853062 on 1 procs for 1 steps with 3 atoms
run 1 pre no post no
Step Temp E_pair E_mol TotEng Press 
     167            0   -248.27593            0   -248.27593   -150.12813 
     168            0   -248.27593            0   -248.27593   -150.12798 
Loop time of 0.000860214 on 1 procs for 1 steps with 3 atoms
run 1 pre no post no
Step Temp E_pair E_mol TotEng Press 
     168            0   -248.27593            0   -248.27593   -150.12798 
     169            0   -248.27593            0   -248.27593   -150.12813 
Loop time of 0.000864983 on 1 procs for 1 steps with 3 atoms
run 1 pre no post no
Step Temp E_pair E_mol TotEng Press 
     169            0   -248.27593            0   -248.27593   -150.12813 
     170            0   -248.27593            0   -248.27593   -150.12826 
Loop time of 0.000861883 on 1 procs for 1 steps with 3 atoms
run 1 pre no post no
Step Temp E_pair E_mol TotEng Press 
     170            0   -248.27593            0   -248.27593   -150.12826 
     171            0   -248.27593            0   -248.27593   -150.12818 
Loop time of 0.000847816 on 1 procs for 1 steps with 3 atoms
run 1 pre no post no
Step Temp E_pair E_mol TotEng Press 
     171            0   -248.27593            0   -248.27593   -150.12818 
     172            0   -248.27593            0   -248.27593   -150.12803 
Loop time of 0.000848055 on 1 procs for 1 steps with 3 atoms
run 1 pre no post no
Step Temp E_pair E_mol TotEng Press 
     172            0   -248.27593            0   -248.27593   -150.12803 
     173            0   -248.27593            0   -248.27593   -150.12809 
Loop time of 0.000858784 on 1 procs for 1 steps with 3 atoms
run 1 pre no post no
Step Temp E_pair E_mol TotEng Press 
     173            0   -248.27593            0   -248.27593   -150.12809 
     174            0   -248.27593            0   -248.27593   -150.12831 
Loop time of 0.000849962 on 1 procs for 1 steps with 3 atoms
run 1 pre no post no
Step Temp E_pair E_mol TotEng Press 
     174            0   -248.27593            0   -248.27593   -150.12831 
     175            0   -248.27593            0   -248.27593   -150.12834 
Loop time of 0.000852108 on 1 procs for 1 steps with 3 atoms
run 1 pre no post no
Step Temp E_pair E_mol TotEng Press 
     175            0   -248.27593            0   -248.27593   -150.12834 
     176            0   -248.27593            0   -248.27593   -150.12808 
Loop time of 0.000869036 on 1 procs for 1 steps with 3 atoms
run 1 pre no post no
Step Temp E_pair E_mol TotEng Press 
     176            0   -248.27593            0   -248.27593   -150.12808 
     177            0   -248.27593            0   -248.27593   -150.12826 
Loop time of 0.000854015 on 1 procs for 1 steps with 3 atoms
run 1 pre no post no
Step Temp E_pair E_mol TotEng Press 
     177            0   -248.27593            0   -248.27593   -150.12826 
     178            0   -248.27593            0   -248.27593   -150.12829 
Loop time of 0.000849962 on 1 procs for 1 steps with 3 atoms
run 1 pre no post no
Step Temp E_pair E_mol TotEng Press 
     178            0   -248.27593            0   -248.27593   -150.12829 
     179            0   -248.27593            0   -248.27593   -150.12821 
Loop time of 0.000849962 on 1 procs for 1 steps with 3 atoms
run 1 pre no post no
Step Temp E_pair E_mol TotEng Press 
     179            0   -248.27593            0   -248.27593   -150.12821 
     180            0   -248.27593            0   -248.27593   -150.12819 
Loop time of 0.000849009 on 1 procs for 1 steps with 3 atoms
run 1 pre no post no
Step Temp E_pair E_mol TotEng Press 
     180            0   -248.27593            0   -248.27593   -150.12819 
     181            0   -248.27593            0   -248.27593   -150.12823 
Loop time of 0.000927925 on 1 procs for 1 steps with 3 atoms
run 1 pre no post no
Step Temp E_pair E_mol TotEng Press 
     181            0   -248.27593            0   -248.27593   -150.12823 
     182            0   -248.27593            0   -248.27593   -150.12818 
Loop time of 0.000838041 on 1 procs for 1 steps with 3 atoms
run 1 pre no post no
Step Temp E_pair E_mol TotEng Press 
     182            0   -248.27593            0   -248.27593   -150.12818 
     183            0   -248.27593            0   -248.27593    -150.1281 
Loop time of 0.000865936 on 1 procs for 1 steps with 3 atoms
run 1 pre no post no
Step Temp E_pair E_mol TotEng Press 
     183            0   -248.27593            0   -248.27593    -150.1281 
     184            0   -248.27593            0   -248.27593   -150.12815 
Loop time of 0.000864983 on 1 procs for 1 steps with 3 atoms
run 1 pre no post no
Step Temp E_pair E_mol TotEng Press 
     184            0   -248.27593            0   -248.27593   -150.12815 
     185            0   -248.27593            0   -248.27593   -150.12837 
Loop time of 0.00086689 on 1 procs for 1 steps with 3 atoms
run 1 pre no post no
Step Temp E_pair E_mol TotEng Press 
     185            0   -248.27593            0   -248.27593   -150.12837 
     186            0   -248.27593            0   -248.27593    -150.1282 
Loop time of 0.000864029 on 1 procs for 1 steps with 3 atoms
run 1 pre no post no
Step Temp E_pair E_mol TotEng Press 
     186            0   -248.27593            0   -248.27593    -150.1282 
     187            0   -248.27593            0   -248.27593   -150.12804 
Loop time of 0.000852108 on 1 procs for 1 steps with 3 atoms
run 1 pre no post no
Step Temp E_pair E_mol TotEng Press 
     187            0   -248.27593            0   -248.27593   -150.12804 
     188            0   -248.27593            0   -248.27593   -150.12823 
Loop time of 0.000848055 on 1 procs for 1 steps with 3 atoms
run 1 pre no post no
Step Temp E_pair E_mol TotEng Press 
     188            0   -248.27593            0   -248.27593   -150.12823 
     189            0   -248.27593            0   -248.27593   -150.12839 
Loop time of 0.000852108 on 1 procs for 1 steps with 3 atoms
run 1 pre no post no
Step Temp E_pair E_mol TotEng Press 
     189            0   -248.27593            0   -248.27593   -150.12839 
     190            0   -248.27593            0   -248.27593   -150.12827 
Loop time of 0.000845909 on 1 procs for 1 steps with 3 atoms
run 1 pre no post no
Step Temp E_pair E_mol TotEng Press 
     190            0   -248.27593            0   -248.27593   -150.12827 
     191            0   -248.27593            0   -248.27593   -150.12805 
Loop time of 0.000822067 on 1 procs for 1 steps with 3 atoms
run 1 pre no post no
Step Temp E_pair E_mol TotEng Press 
     191            0   -248.27593            0   -248.27593   -150.12805 
     192            0   -248.27593            0   -248.27593   -150.12813 
Loop time of 0.000858068 on 1 procs for 1 steps with 3 atoms
run 1 pre no post no
Step Temp E_pair E_mol TotEng Press 
     192            0   -248.27593            0   -248.27593   -150.12813 
     193            0   -248.27593            0   -248.27593   -150.12829 
Loop time of 0.000850916 on 1 procs for 1 steps with 3 atoms
run 1 pre no post no
Step Temp E_pair E_mol TotEng Press 
     193            0   -248.27593            0   -248.27593   -150.12829 
     194            0   -248.27593            0   -248.27593   -150.12825 
Loop time of 0.000867844 on 1 procs for 1 steps with 3 atoms
run 1 pre no post no
Step Temp E_pair E_mol TotEng Press 
     194            0   -248.27593            0   -248.27593   -150.12825 
     195            0   -248.27593            0   -248.27593   -150.12826 
Loop time of 0.000854015 on 1 procs for 1 steps with 3 atoms
run 1 pre no post no
Step Temp E_pair E_mol TotEng Press 
     195            0   -248.27593            0   -248.27593   -150.12826 
     196            0   -248.27593            0   -248.27593   -150.12819 
Loop time of 0.000866175 on 1 procs for 1 steps with 3 atoms
run 1 pre no post no
Step Temp E_pair E_mol TotEng Press 
     196            0   -248.27593            0   -248.27593   -150.12819 
     197            0   -248.27593            0   -248.27593   -150.12803 
Loop time of 0.000813961 on 1 procs for 1 steps with 3 atoms
run 1 pre no post no
Step Temp E_pair E_mol TotEng Press 
     197            0   -248.27593            0   -248.27593   -150.12803 
     198            0   -248.27593            0   -248.27593   -150.12798 
Loop time of 0.000839949 on 1 procs for 1 steps with 3 atoms
run 1 pre no post no
Step Temp E_pair E_mol TotEng Press 
     198            0   -248.27593            0   -248.27593   -150.12798 
     199            0   -248.27593            0   -248.27593    -150.1282 
Loop time of 0.000862122 on 1 procs for 1 steps with 3 atoms
run 1 pre no post no
Step Temp E_pair E_mol TotEng Press 
     199            0   -248.27593            0   -248.27593    -150.1282 
     200            0   -248.27593            0   -248.27593   -150.12821 
Loop time of 0.000863075 on 1 procs for 1 steps with 3 atoms
run 1 pre no post no
Step Temp E_pair E_mol TotEng Press 
     200            0   -248.27593            0   -248.27593   -150.12821 
     201            0   -248.27593            0   -248.27593   -150.12831 
Loop time of 0.000854015 on 1 procs for 1 steps with 3 atoms
run 1 pre no post no
Step Temp E_pair E_mol TotEng Press 
     201            0   -248.27593            0   -248.27593   -150.12831 
     202            0   -248.27593            0   -248.27593   -150.12827 
Loop time of 0.000846863 on 1 procs for 1 steps with 3 atoms
run 1 pre no post no
Step Temp E_pair E_mol TotEng Press 
     202            0   -248.27593            0   -248.27593   -150.12827 
     203            0   -248.27593            0   -248.27593   -150.12815 
Loop time of 0.00088501 on 1 procs for 1 steps with 3 atoms
run 1 pre no post no
Step Temp E_pair E_mol TotEng Press 
     203            0   -248.27593            0   -248.27593   -150.12815 
     204            0   -248.27593            0   -248.27593   -150.12807 
Loop time of 0.000816107 on 1 procs for 1 steps with 3 atoms
run 1 pre no post no
Step Temp E_pair E_mol TotEng Press 
     204            0   -248.27593            0   -248.27593   -150.12807 
     205            0   -248.27593            0   -248.27593   -150.12807 
Loop time of 0.000852108 on 1 procs for 1 steps with 3 atoms
run 1 pre no post no
Step Temp E_pair E_mol TotEng Press 
     205            0   -248.27593            0   -248.27593   -150.12807 
     206            0   -248.27593            0   -248.27593   -150.12817 
Loop time of 0.000851154 on 1 procs for 1 steps with 3 atoms
run 1 pre no post no
Step Temp E_pair E_mol TotEng Press 
     206            0   -248.27593            0   -248.27593   -150.12817 
     207            0   -248.27593            0   -248.27593   -150.12833 
Loop time of 0.000841856 on 1 procs for 1 steps with 3 atoms
run 1 pre no post no
Step Temp E_pair E_mol TotEng Press 
     207            0   -248.27593            0   -248.27593   -150.12833 
     208            0   -248.27593            0   -248.27593   -150.12832 
Loop time of 0.000870943 on 1 procs for 1 steps with 3 atoms
run 1 pre no post no
Step Temp E_pair E_mol TotEng Press 
     208            0   -248.27593            0   -248.27593   -150.12832 
     209            0   -248.27593            0   -248.27593    -150.1281 
Loop time of 0.000853062 on 1 procs for 1 steps with 3 atoms
run 1 pre no post no
Step Temp E_pair E_mol TotEng Press 
     209            0   -248.27593            0   -248.27593    -150.1281 
     210            0   -248.27593            0   -248.27593   -150.12803 
Loop time of 0.000847101 on 1 procs for 1 steps with 3 atoms
run 1 pre no post no
Step Temp E_pair E_mol TotEng Press 
     210            0   -248.27593            0   -248.27593   -150.12803 
     211            0   -248.27593            0   -248.27593   -150.12834 
Loop time of 0.000844955 on 1 procs for 1 steps with 3 atoms
run 1 pre no post no
Step Temp E_pair E_mol TotEng Press 
     211            0   -248.27593            0   -248.27593   -150.12834 
     212            0   -248.27593            0   -248.27593   -150.12826 
Loop time of 0.000916958 on 1 procs for 1 steps with 3 atoms
run 1 pre no post no
Step Temp E_pair E_mol TotEng Press 
     212            0   -248.27593            0   -248.27593   -150.12826 
     213            0   -248.27593            0   -248.27593   -150.12821 
Loop time of 0.000855923 on 1 procs for 1 steps with 3 atoms
run 1 pre no post no
Step Temp E_pair E_mol TotEng Press 
     213            0   -248.27593            0   -248.27593   -150.12821 
     214            0   -248.27593            0   -248.27593   -150.12821 
Loop time of 0.000846148 on 1 procs for 1 steps with 3 atoms
run 1 pre no post no
Step Temp E_pair E_mol TotEng Press 
     214            0   -248.27593            0   -248.27593   -150.12821 
     215            0   -248.27593            0   -248.27593   -150.12814 
Loop time of 0.000850201 on 1 procs for 1 steps with 3 atoms
run 1 pre no post no
Step Temp E_pair E_mol TotEng Press 
     215            0   -248.27593            0   -248.27593   -150.12814 
     216            0   -248.27593            0   -248.27593    -150.1281 
Loop time of 0.000863075 on 1 procs for 1 steps with 3 atoms
run 1 pre no post no
Step Temp E_pair E_mol TotEng Press 
     216            0   -248.27593            0   -248.27593    -150.1281 
     217            0   -248.27593            0   -248.27593   -150.12814 
Loop time of 0.000843048 on 1 procs for 1 steps with 3 atoms
run 1 pre no post no
Step Temp E_pair E_mol TotEng Press 
     217            0   -248.27593            0   -248.27593   -150.12814 
     218            0   -248.27593            0   -248.27593   -150.12828 
Loop time of 0.000863075 on 1 procs for 1 steps with 3 atoms
run 1 pre no post no
Step Temp E_pair E_mol TotEng Press 
     218            0   -248.27593            0   -248.27593   -150.12828 
     219            0   -248.27593            0   -248.27593   -150.12828 
Loop time of 0.00101113 on 1 procs for 1 steps with 3 atoms
run 1 pre no post no
Step Temp E_pair E_mol TotEng Press 
     219            0   -248.27593            0   -248.27593   -150.12828 
     220            0   -248.27593            0   -248.27593   -150.12801 
Loop time of 0.000846148 on 1 procs for 1 steps with 3 atoms
run 1 pre no post no
Step Temp E_pair E_mol TotEng Press 
     220            0   -248.27593            0   -248.27593   -150.12801 
     221            0   -248.27593            0   -248.27593   -150.12816 
Loop time of 0.000861168 on 1 procs for 1 steps with 3 atoms
run 1 pre no post no
Step Temp E_pair E_mol TotEng Press 
     221            0   -248.27593            0   -248.27593   -150.12816 
     222            0   -248.27593            0   -248.27593   -150.12828 
Loop time of 0.000869036 on 1 procs for 1 steps with 3 atoms
run 1 pre no post no
Step Temp E_pair E_mol TotEng Press 
     222            0   -248.27593            0   -248.27593   -150.12828 
     223            0   -248.27593            0   -248.27593   -150.12825 
Loop time of 0.000841856 on 1 procs for 1 steps with 3 atoms
run 1 pre no post no
Step Temp E_pair E_mol TotEng Press 
     223            0   -248.27593            0   -248.27593   -150.12825 
     224            0   -248.27593            0   -248.27593   -150.12816 
Loop time of 0.000874996 on 1 procs for 1 steps with 3 atoms
run 1 pre no post no
Step Temp E_pair E_mol TotEng Press 
     224            0   -248.27593            0   -248.27593   -150.12816 
     225            0   -248.27593            0   -248.27593   -150.12818 
Loop time of 0.000854015 on 1 procs for 1 steps with 3 atoms
run 1 pre no post no
Step Temp E_pair E_mol TotEng Press 
     225            0   -248.27593            0   -248.27593   -150.12818 
     226            0   -248.27593            0   -248.27593   -150.12822 
Loop time of 0.000847101 on 1 procs for 1 steps with 3 atoms
run 1 pre no post no
Step Temp E_pair E_mol TotEng Press 
     226            0   -248.27593            0   -248.27593   -150.12822 
     227            0   -248.27593            0   -248.27593   -150.12819 
Loop time of 0.000848055 on 1 procs for 1 steps with 3 atoms
run 1 pre no post no
Step Temp E_pair E_mol TotEng Press 
     227            0   -248.27593            0   -248.27593   -150.12819 
     228            0   -248.27593            0   -248.27593   -150.12823 
Loop time of 0.000849009 on 1 procs for 1 steps with 3 atoms
run 1 pre no post no
Step Temp E_pair E_mol TotEng Press 
     228            0   -248.27593            0   -248.27593   -150.12823 
     229            0   -248.27593            0   -248.27593   -150.12824 
Loop time of 0.000853062 on 1 procs for 1 steps with 3 atoms
run 1 pre no post no
Step Temp E_pair E_mol TotEng Press 
     229            0   -248.27593            0   -248.27593   -150.12824 
     230            0   -248.27593            0   -248.27593   -150.12816 
Loop time of 0.000844002 on 1 procs for 1 steps with 3 atoms
run 1 pre no post no
Step Temp E_pair E_mol TotEng Press 
     230            0   -248.27593            0   -248.27593   -150.12816 
     231            0   -248.27593            0   -248.27593   -150.12816 
Loop time of 0.000818968 on 1 procs for 1 steps with 3 atoms
run 1 pre no post no
Step Temp E_pair E_mol TotEng Press 
     231            0   -248.27593            0   -248.27593   -150.12816 
     232            0   -248.27593            0   -248.27593   -150.12821 
Loop time of 0.000859022 on 1 procs for 1 steps with 3 atoms
run 1 pre no post no
Step Temp E_pair E_mol TotEng Press 
     232            0   -248.27593            0   -248.27593   -150.12821 
     233            0   -248.27593            0   -248.27593   -150.12814 
Loop time of 0.000849009 on 1 procs for 1 steps with 3 atoms
run 1 pre no post no
Step Temp E_pair E_mol TotEng Press 
     233            0   -248.27593            0   -248.27593   -150.12814 
     234            0   -248.27593            0   -248.27593   -150.12804 
Loop time of 0.000852823 on 1 procs for 1 steps with 3 atoms
run 1 pre no post no
Step Temp E_pair E_mol TotEng Press 
     234            0   -248.27593            0   -248.27593   -150.12804 
     235            0   -248.27593            0   -248.27593    -150.1281 
Loop time of 0.000854969 on 1 procs for 1 steps with 3 atoms
run 1 pre no post no
Step Temp E_pair E_mol TotEng Press 
     235            0   -248.27593            0   -248.27593    -150.1281 
     236            0   -248.27593            0   -248.27593   -150.12835 
Loop time of 0.000848055 on 1 procs for 1 steps with 3 atoms
run 1 pre no post no
Step Temp E_pair E_mol TotEng Press 
     236            0   -248.27593            0   -248.27593   -150.12835 
     237            0   -248.27593            0   -248.27593   -150.12816 
Loop time of 0.000854969 on 1 procs for 1 steps with 3 atoms
run 1 pre no post no
Step Temp E_pair E_mol TotEng Press 
     237            0   -248.27593            0   -248.27593   -150.12816 
     238            0   -248.27593            0   -248.27593   -150.12801 
Loop time of 0.000849962 on 1 procs for 1 steps with 3 atoms
run 1 pre no post no
Step Temp E_pair E_mol TotEng Press 
     238            0   -248.27593            0   -248.27593   -150.12801 
     239            0   -248.27593            0   -248.27593   -150.12822 
Loop time of 0.000855923 on 1 procs for 1 steps with 3 atoms
run 1 pre no post no
Step Temp E_pair E_mol TotEng Press 
     239            0   -248.27593            0   -248.27593   -150.12822 
     240            0   -248.27593            0   -248.27593   -150.12825 
Loop time of 0.000862122 on 1 procs for 1 steps with 3 atoms
run 1 pre no post no
Step Temp E_pair E_mol TotEng Press 
     240            0   -248.27593            0   -248.27593   -150.12825 
     241            0   -248.27593            0   -248.27593   -150.12812 
Loop time of 0.000850916 on 1 procs for 1 steps with 3 atoms
run 1 pre no post no
Step Temp E_pair E_mol TotEng Press 
     241            0   -248.27593            0   -248.27593   -150.12812 
     242            0   -248.27593            0   -248.27593   -150.12807 
Loop time of 0.000845909 on 1 procs for 1 steps with 3 atoms
run 1 pre no post no
Step Temp E_pair E_mol TotEng Press 
     242            0   -248.27593            0   -248.27593   -150.12807 
     243            0   -248.27593            0   -248.27593   -150.12824 
Loop time of 0.000869036 on 1 procs for 1 steps with 3 atoms
run 1 pre no post no
Step Temp E_pair E_mol TotEng Press 
     243            0   -248.27593            0   -248.27593   -150.12824 
     244            0   -248.27593            0   -248.27593   -150.12828 
Loop time of 0.00090003 on 1 procs for 1 steps with 3 atoms
run 1 pre no post no
Step Temp E_pair E_mol TotEng Press 
     244            0   -248.27593            0   -248.27593   -150.12828 
     245            0   -248.27593            0   -248.27593   -150.12807 
Loop time of 0.000853062 on 1 procs for 1 steps with 3 atoms
run 1 pre no post no
Step Temp E_pair E_mol TotEng Press 
     245            0   -248.27593            0   -248.27593   -150.12807 
     246            0   -248.27593            0   -248.27593   -150.12823 
Loop time of 0.000849009 on 1 procs for 1 steps with 3 atoms
run 1 pre no post no
Step Temp E_pair E_mol TotEng Press 
     246            0   -248.27593            0   -248.27593   -150.12823 
     247            0   -248.27593            0   -248.27593    -150.1282 
Loop time of 0.000853062 on 1 procs for 1 steps with 3 atoms
run 1 pre no post no
Step Temp E_pair E_mol TotEng Press 
     247            0   -248.27593            0   -248.27593    -150.1282 
     248            0   -248.27593            0   -248.27593   -150.12806 
Loop time of 0.000846863 on 1 procs for 1 steps with 3 atoms
run 1 pre no post no
Step Temp E_pair E_mol TotEng Press 
     248            0   -248.27593            0   -248.27593   -150.12806 
     249            0   -248.27593            0   -248.27593   -150.12802 
Loop time of 0.000854969 on 1 procs for 1 steps with 3 atoms
run 1 pre no post no
Step Temp E_pair E_mol TotEng Press 
     249            0   -248.27593            0   -248.27593   -150.12802 
     250            0   -248.27593            0   -248.27593   -150.12813 
Loop time of 0.000846148 on 1 procs for 1 steps with 3 atoms
run 1 pre no post no
Step Temp E_pair E_mol TotEng Press 
     250            0   -248.27593            0   -248.27593   -150.12813 
     251            0   -248.27593            0   -248.27593   -150.12828 
Loop time of 0.000854015 on 1 procs for 1 steps with 3 atoms
run 1 pre no post no
Step Temp E_pair E_mol TotEng Press 
     251            0   -248.27593            0   -248.27593   -150.12828 
     252            0   -248.27593            0   -248.27593    -150.1282 
Loop time of 0.000864029 on 1 procs for 1 steps with 3 atoms
run 1 pre no post no
Step Temp E_pair E_mol TotEng Press 
     252            0   -248.27593            0   -248.27593    -150.1282 
     253            0   -248.27593            0   -248.27593   -150.12826 
Loop time of 0.000857115 on 1 procs for 1 steps with 3 atoms
run 1 pre no post no
Step Temp E_pair E_mol TotEng Press 
     253            0   -248.27593            0   -248.27593   -150.12826 
     254            0   -248.27593            0   -248.27593   -150.12816 
Loop time of 0.000818014 on 1 procs for 1 steps with 3 atoms
run 1 pre no post no
Step Temp E_pair E_mol TotEng Press 
     254            0   -248.27593            0   -248.27593   -150.12816 
     255            0   -248.27593            0   -248.27593   -150.12797 
Loop time of 0.000851154 on 1 procs for 1 steps with 3 atoms
run 1 pre no post no
Step Temp E_pair E_mol TotEng Press 
     255            0   -248.27593            0   -248.27593   -150.12797 
     256            0   -248.27593            0   -248.27593   -150.12814 
Loop time of 0.000859976 on 1 procs for 1 steps with 3 atoms
run 1 pre no post no
Step Temp E_pair E_mol TotEng Press 
     256            0   -248.27593            0   -248.27593   -150.12814 
     257            0   -248.27593            0   -248.27593   -150.12832 
Loop time of 0.000874043 on 1 procs for 1 steps with 3 atoms
run 1 pre no post no
Step Temp E_pair E_mol TotEng Press 
     257            0   -248.27593            0   -248.27593   -150.12832 
     258            0   -248.27593            0   -248.27593    -150.1284 
Loop time of 0.000838995 on 1 procs for 1 steps with 3 atoms
run 1 pre no post no
Step Temp E_pair E_mol TotEng Press 
     258            0   -248.27593            0   -248.27593    -150.1284 
     259            0   -248.27593            0   -248.27593   -150.12826 
Loop time of 0.000850916 on 1 procs for 1 steps with 3 atoms
run 1 pre no post no
Step Temp E_pair E_mol TotEng Press 
     259            0   -248.27593            0   -248.27593   -150.12826 
     260            0   -248.27593            0   -248.27593   -150.12806 
Loop time of 0.000889063 on 1 procs for 1 steps with 3 atoms
run 1 pre no post no
Step Temp E_pair E_mol TotEng Press 
     260            0   -248.27593            0   -248.27593   -150.12806 
     261            0   -248.27593            0   -248.27593    -150.1281 
Loop time of 0.000852108 on 1 procs for 1 steps with 3 atoms
run 1 pre no post no
Step Temp E_pair E_mol TotEng Press 
     261            0   -248.27593            0   -248.27593    -150.1281 
     262            0   -248.27593            0   -248.27593   -150.12834 
Loop time of 0.000844002 on 1 procs for 1 steps with 3 atoms
run 1 pre no post no
Step Temp E_pair E_mol TotEng Press 
     262            0   -248.27593            0   -248.27593   -150.12834 
     263            0   -248.27593            0   -248.27593   -150.12818 
Loop time of 0.000859022 on 1 procs for 1 steps with 3 atoms
run 1 pre no post no
Step Temp E_pair E_mol TotEng Press 
     263            0   -248.27593            0   -248.27593   -150.12818 
     264            0   -248.27593            0   -248.27593   -150.12813 
Loop time of 0.000849009 on 1 procs for 1 steps with 3 atoms
run 1 pre no post no
Step Temp E_pair E_mol TotEng Press 
     264            0   -248.27593            0   -248.27593   -150.12813 
     265            0   -248.27593            0   -248.27593   -150.12814 
Loop time of 0.000850916 on 1 procs for 1 steps with 3 atoms
run 1 pre no post no
Step Temp E_pair E_mol TotEng Press 
     265            0   -248.27593            0   -248.27593   -150.12814 
     266            0   -248.27593            0   -248.27593   -150.12813 
Loop time of 0.000859022 on 1 procs for 1 steps with 3 atoms
run 1 pre no post no
Step Temp E_pair E_mol TotEng Press 
     266            0   -248.27593            0   -248.27593   -150.12813 
     267            0   -248.27593            0   -248.27593   -150.12811 
Loop time of 0.000853062 on 1 procs for 1 steps with 3 atoms
run 1 pre no post no
Step Temp E_pair E_mol TotEng Press 
     267            0   -248.27593            0   -248.27593   -150.12811 
     268            0   -248.27593            0   -248.27593   -150.12815 
Loop time of 0.000844955 on 1 procs for 1 steps with 3 atoms
run 1 pre no post no
Step Temp E_pair E_mol TotEng Press 
     268            0   -248.27593            0   -248.27593   -150.12815 
     269            0   -248.27593            0   -248.27593   -150.12833 
Loop time of 0.000850201 on 1 procs for 1 steps with 3 atoms
run 1 pre no post no
Step Temp E_pair E_mol TotEng Press 
     269            0   -248.27593            0   -248.27593   -150.12833 
     270            0   -248.27593            0   -248.27593   -150.12835 
Loop time of 0.000853062 on 1 procs for 1 steps with 3 atoms
run 1 pre no post no
Step Temp E_pair E_mol TotEng Press 
     270            0   -248.27593            0   -248.27593   -150.12835 
     271            0   -248.27593            0   -248.27593   -150.12818 
Loop time of 0.000852823 on 1 procs for 1 steps with 3 atoms
run 1 pre no post no
Step Temp E_pair E_mol TotEng Press 
     271            0   -248.27593            0   -248.27593   -150.12818 
     272            0   -248.27593            0   -248.27593   -150.12799 
Loop time of 0.000901937 on 1 procs for 1 steps with 3 atoms
run 1 pre no post no
Step Temp E_pair E_mol TotEng Press 
     272            0   -248.27593            0   -248.27593   -150.12799 
     273            0   -248.27593            0   -248.27593   -150.12817 
Loop time of 0.000858068 on 1 procs for 1 steps with 3 atoms
run 1 pre no post no
Step Temp E_pair E_mol TotEng Press 
     273            0   -248.27593            0   -248.27593   -150.12817 
     274            0   -248.27593            0   -248.27593   -150.12825 
Loop time of 0.000896931 on 1 procs for 1 steps with 3 atoms
run 1 pre no post no
Step Temp E_pair E_mol TotEng Press 
     274            0   -248.27593            0   -248.27593   -150.12825 
     275            0   -248.27593            0   -248.27593   -150.12811 
Loop time of 0.000893116 on 1 procs for 1 steps with 3 atoms
run 1 pre no post no
Step Temp E_pair E_mol TotEng Press 
     275            0   -248.27593            0   -248.27593   -150.12811 
     276            0   -248.27593            0   -248.27593   -150.12801 
Loop time of 0.000848055 on 1 procs for 1 steps with 3 atoms
run 1 pre no post no
Step Temp E_pair E_mol TotEng Press 
     276            0   -248.27593            0   -248.27593   -150.12801 
     277            0   -248.27593            0   -248.27593   -150.12811 
Loop time of 0.000830889 on 1 procs for 1 steps with 3 atoms
run 1 pre no post no
Step Temp E_pair E_mol TotEng Press 
     277            0   -248.27593            0   -248.27593   -150.12811 
     278            0   -248.27593            0   -248.27593   -150.12801 
Loop time of 0.000865936 on 1 procs for 1 steps with 3 atoms
run 1 pre no post no
Step Temp E_pair E_mol TotEng Press 
     278            0   -248.27593            0   -248.27593   -150.12801 
     279            0   -248.27593            0   -248.27593   -150.12804 
Loop time of 0.000855923 on 1 procs for 1 steps with 3 atoms
run 1 pre no post no
Step Temp E_pair E_mol TotEng Press 
     279            0   -248.27593            0   -248.27593   -150.12804 
     280            0   -248.27593            0   -248.27593   -150.12816 
Loop time of 0.000859976 on 1 procs for 1 steps with 3 atoms
run 1 pre no post no
Step Temp E_pair E_mol TotEng Press 
     280            0   -248.27593            0   -248.27593   -150.12816 
     281            0   -248.27593            0   -248.27593   -150.12832 
Loop time of 0.00104403 on 1 procs for 1 steps with 3 atoms
run 1 pre no post no
Step Temp E_pair E_mol TotEng Press 
     281            0   -248.27593            0   -248.27593   -150.12832 
     282            0   -248.27593            0   -248.27593   -150.12817 
Loop time of 0.000865936 on 1 procs for 1 steps with 3 atoms
run 1 pre no post no
Step Temp E_pair E_mol TotEng Press 
     282            0   -248.27593            0   -248.27593   -150.12817 
     283            0   -248.27593            0   -248.27593   -150.12813 
Loop time of 0.000886917 on 1 procs for 1 steps with 3 atoms
run 1 pre no post no
Step Temp E_pair E_mol TotEng Press 
     283            0   -248.27593            0   -248.27593   -150.12813 
     284            0   -248.27593            0   -248.27593   -150.12829 
Loop time of 0.000858784 on 1 procs for 1 steps with 3 atoms
run 1 pre no post no
Step Temp E_pair E_mol TotEng Press 
     284            0   -248.27593            0   -248.27593   -150.12829 
     285            0   -248.27593            0   -248.27593   -150.12828 
Loop time of 0.00087595 on 1 procs for 1 steps with 3 atoms
run 1 pre no post no
Step Temp E_pair E_mol TotEng Press 
     285            0   -248.27593            0   -248.27593   -150.12828 
     286            0   -248.27593            0   -248.27593   -150.12809 
Loop time of 0.000895023 on 1 procs for 1 steps with 3 atoms
run 1 pre no post no
Step Temp E_pair E_mol TotEng Press 
     286            0   -248.27593            0   -248.27593   -150.12809 
     287            0   -248.27593            0   -248.27593   -150.12803 
Loop time of 0.000850916 on 1 procs for 1 steps with 3 atoms
run 1 pre no post no
Step Temp E_pair E_mol TotEng Press 
     287            0   -248.27593            0   -248.27593   -150.12803 
     288            0   -248.27593            0   -248.27593    -150.1282 
Loop time of 0.000833035 on 1 procs for 1 steps with 3 atoms
run 1 pre no post no
Step Temp E_pair E_mol TotEng Press 
     288            0   -248.27593            0   -248.27593    -150.1282 
     289            0   -248.27593            0   -248.27593   -150.12836 
Loop time of 0.000854015 on 1 procs for 1 steps with 3 atoms
run 1 pre no post no
Step Temp E_pair E_mol TotEng Press 
     289            0   -248.27593            0   -248.27593   -150.12836 
     290            0   -248.27593            0   -248.27593   -150.12827 
Loop time of 0.000862837 on 1 procs for 1 steps with 3 atoms
run 1 pre no post no
Step Temp E_pair E_mol TotEng Press 
     290            0   -248.27593            0   -248.27593   -150.12827 
     291            0   -248.27593            0   -248.27593     -150.128 
Loop time of 0.000818014 on 1 procs for 1 steps with 3 atoms
run 1 pre no post no
Step Temp E_pair E_mol TotEng Press 
     291            0   -248.27593            0   -248.27593     -150.128 
     292            0   -248.27593            0   -248.27593   -150.12801 
Loop time of 0.000852108 on 1 procs for 1 steps with 3 atoms
run 1 pre no post no
Step Temp E_pair E_mol TotEng Press 
     292            0   -248.27593            0   -248.27593   -150.12801 
     293            0   -248.27593            0   -248.27593   -150.12837 
Loop time of 0.000851154 on 1 procs for 1 steps with 3 atoms
run 1 pre no post no
Step Temp E_pair E_mol TotEng Press 
     293            0   -248.27593            0   -248.27593   -150.12837 
     294            0   -248.27593            0   -248.27593   -150.12826 
Loop time of 0.000867844 on 1 procs for 1 steps with 3 atoms
run 1 pre no post no
Step Temp E_pair E_mol TotEng Press 
[...]
Loop time of 0.001688 on 1 procs for 1 steps with 3 atoms
run 1 pre no post no
Step Temp E_pair E_mol TotEng Press 
    3778            0   -248.27593            0   -248.27593   -150.12819 
    3779            0   -248.27593            0   -248.27593   -150.12808 
Loop time of 0.00177288 on 1 procs for 1 steps with 3 atoms
run 1 pre no post no
Step Temp E_pair E_mol TotEng Press 
    3779            0   -248.27593            0   -248.27593   -150.12808 
    3780            0   -248.27593            0   -248.27593   -150.12831 
Loop time of 0.0017159 on 1 procs for 1 steps with 3 atoms
run 1 pre no post no
Step Temp E_pair E_mol TotEng Press 
    3780            0   -248.27593            0   -248.27593   -150.12831 
    3781            0   -248.27593            0   -248.27593   -150.12831 
Loop time of 0.00175786 on 1 procs for 1 steps with 3 atoms
run 1 pre no post no
Step Temp E_pair E_mol TotEng Press 
    3781            0   -248.27593            0   -248.27593   -150.12831 
    3782            0   -248.27593            0   -248.27593   -150.12827 
Loop time of 0.00174618 on 1 procs for 1 steps with 3 atoms
run 1 pre no post no
Step Temp E_pair E_mol TotEng Press 
    3782            0   -248.27593            0   -248.27593   -150.12827 
    3783            0   -248.27593            0   -248.27593   -150.12835 
Loop time of 0.00173712 on 1 procs for 1 steps with 3 atoms
run 1 pre no post no
Step Temp E_pair E_mol TotEng Press 
    3783            0   -248.27593            0   -248.27593   -150.12835 
    3784            0   -248.27593            0   -248.27593   -150.12807 
Loop time of 0.00167799 on 1 procs for 1 steps with 3 atoms
run 1 pre no post no
Step Temp E_pair E_mol TotEng Press 
    3784            0   -248.27593            0   -248.27593   -150.12807 
    3785            0   -248.27593            0   -248.27593   -150.12818 
Loop time of 0.00175595 on 1 procs for 1 steps with 3 atoms
run 1 pre no post no
Step Temp E_pair E_mol TotEng Press 
    3785            0   -248.27593            0   -248.27593   -150.12818 
    3786            0   -248.27593            0   -248.27593   -150.12826 
Loop time of 0.00165606 on 1 procs for 1 steps with 3 atoms
run 1 pre no post no
Step Temp E_pair E_mol TotEng Press 
    3786            0   -248.27593            0   -248.27593   -150.12826 
    3787            0   -248.27593            0   -248.27593   -150.12806 
Loop time of 0.00173903 on 1 procs for 1 steps with 3 atoms
run 1 pre no post no
Step Temp E_pair E_mol TotEng Press 
    3787            0   -248.27593            0   -248.27593   -150.12806 
    3788            0   -248.27593            0   -248.27593   -150.12816 
Loop time of 0.00180888 on 1 procs for 1 steps with 3 atoms
run 1 pre no post no
Step Temp E_pair E_mol TotEng Press 
    3788            0   -248.27593            0   -248.27593   -150.12816 
    3789            0   -248.27593            0   -248.27593   -150.12804 
Loop time of 0.00181079 on 1 procs for 1 steps with 3 atoms
run 1 pre no post no
Step Temp E_pair E_mol TotEng Press 
    3789            0   -248.27593            0   -248.27593   -150.12804 
    3790            0   -248.27593            0   -248.27593   -150.12814 
Loop time of 0.0017879 on 1 procs for 1 steps with 3 atoms
run 1 pre no post no
Step Temp E_pair E_mol TotEng Press 
    3790            0   -248.27593            0   -248.27593   -150.12814 
    3791            0   -248.27594            0   -248.27594   -150.12847 
Loop time of 0.00180507 on 1 procs for 1 steps with 3 atoms
run 1 pre no post no
Step Temp E_pair E_mol TotEng Press 
    3791            0   -248.27594            0   -248.27594   -150.12847 
    3792            0   -248.27593            0   -248.27593   -150.12831 
Loop time of 0.00180292 on 1 procs for 1 steps with 3 atoms
run 1 pre no post no
Step Temp E_pair E_mol TotEng Press 
    3792            0   -248.27593            0   -248.27593   -150.12831 
    3793            0   -248.27593            0   -248.27593   -150.12821 
Loop time of 0.00170183 on 1 procs for 1 steps with 3 atoms
run 1 pre no post no
Step Temp E_pair E_mol TotEng Press 
    3793            0   -248.27593            0   -248.27593   -150.12821 
    3794            0   -248.27593            0   -248.27593   -150.12814 
Loop time of 0.00174308 on 1 procs for 1 steps with 3 atoms
run 1 pre no post no
Step Temp E_pair E_mol TotEng Press 
    3794            0   -248.27593            0   -248.27593   -150.12814 
    3795            0   -248.27593            0   -248.27593   -150.12796 
Loop time of 0.00180292 on 1 procs for 1 steps with 3 atoms
run 1 pre no post no
Step Temp E_pair E_mol TotEng Press 
    3795            0   -248.27593            0   -248.27593   -150.12796 
    3796            0   -248.27593            0   -248.27593   -150.12821 
Loop time of 0.00180578 on 1 procs for 1 steps with 3 atoms
run 1 pre no post no
Step Temp E_pair E_mol TotEng Press 
    3796            0   -248.27593            0   -248.27593   -150.12821 
    3797            0   -248.27593            0   -248.27593   -150.12824 
Loop time of 0.00182295 on 1 procs for 1 steps with 3 atoms
run 1 pre no post no
Step Temp E_pair E_mol TotEng Press 
    3797            0   -248.27593            0   -248.27593   -150.12824 
    3798            0   -248.27593            0   -248.27593   -150.12821 
Loop time of 0.00181079 on 1 procs for 1 steps with 3 atoms
run 1 pre no post no
Step Temp E_pair E_mol TotEng Press 
    3798            0   -248.27593            0   -248.27593   -150.12821 
    3799            0   -248.27593            0   -248.27593   -150.12829 
Loop time of 0.00147009 on 1 procs for 1 steps with 3 atoms
run 1 pre no post no
Step Temp E_pair E_mol TotEng Press 
    3799            0   -248.27593            0   -248.27593   -150.12829 
    3800            0   -248.27593            0   -248.27593   -150.12809 
Loop time of 0.0015049 on 1 procs for 1 steps with 3 atoms
run 1 pre no post no
Step Temp E_pair E_mol TotEng Press 
    3800            0   -248.27593            0   -248.27593   -150.12809 
    3801            0   -248.27593            0   -248.27593   -150.12817 
Loop time of 0.00174308 on 1 procs for 1 steps with 3 atoms
run 1 pre no post no
Step Temp E_pair E_mol TotEng Press 
    3801            0   -248.27593            0   -248.27593   -150.12817 
    3802            0   -248.27593            0   -248.27593   -150.12825 
Loop time of 0.00181007 on 1 procs for 1 steps with 3 atoms
run 1 pre no post no
Step Temp E_pair E_mol TotEng Press 
    3802            0   -248.27593            0   -248.27593   -150.12825 
    3803            0   -248.27593            0   -248.27593   -150.12812 
Loop time of 0.00180387 on 1 procs for 1 steps with 3 atoms
run 1 pre no post no
Step Temp E_pair E_mol TotEng Press 
    3803            0   -248.27593            0   -248.27593   -150.12812 
    3804            0   -248.27593            0   -248.27593   -150.12831 
Loop time of 0.00178289 on 1 procs for 1 steps with 3 atoms
run 1 pre no post no
Step Temp E_pair E_mol TotEng Press 
    3804            0   -248.27593            0   -248.27593   -150.12831 
    3805            0   -248.27593            0   -248.27593   -150.12825 
Loop time of 0.00181413 on 1 procs for 1 steps with 3 atoms
run 1 pre no post no
Step Temp E_pair E_mol TotEng Press 
    3805            0   -248.27593            0   -248.27593   -150.12825 
    3806            0   -248.27593            0   -248.27593   -150.12814 
Loop time of 0.00169897 on 1 procs for 1 steps with 3 atoms
run 1 pre no post no
Step Temp E_pair E_mol TotEng Press 
    3806            0   -248.27593            0   -248.27593   -150.12814 
    3807            0   -248.27593            0   -248.27593   -150.12834 
Loop time of 0.00174522 on 1 procs for 1 steps with 3 atoms
run 1 pre no post no
Step Temp E_pair E_mol TotEng Press 
    3807            0   -248.27593            0   -248.27593   -150.12834 
    3808            0   -248.27593            0   -248.27593   -150.12824 
Loop time of 0.00174904 on 1 procs for 1 steps with 3 atoms
run 1 pre no post no
Step Temp E_pair E_mol TotEng Press 
    3808            0   -248.27593            0   -248.27593   -150.12824 
    3809            0   -248.27593            0   -248.27593   -150.12825 
Loop time of 0.00182319 on 1 procs for 1 steps with 3 atoms
run 1 pre no post no
Step Temp E_pair E_mol TotEng Press 
    3809            0   -248.27593            0   -248.27593   -150.12825 
    3810            0   -248.27593            0   -248.27593   -150.12819 
Loop time of 0.00181007 on 1 procs for 1 steps with 3 atoms
run 1 pre no post no
Step Temp E_pair E_mol TotEng Press 
    3810            0   -248.27593            0   -248.27593   -150.12819 
    3811            0   -248.27593            0   -248.27593    -150.1279 
Loop time of 0.00180197 on 1 procs for 1 steps with 3 atoms
run 1 pre no post no
Step Temp E_pair E_mol TotEng Press 
    3811            0   -248.27593            0   -248.27593    -150.1279 
    3812            0   -248.27593            0   -248.27593    -150.1282 
Loop time of 0.00181699 on 1 procs for 1 steps with 3 atoms
run 1 pre no post no
Step Temp E_pair E_mol TotEng Press 
    3812            0   -248.27593            0   -248.27593    -150.1282 
    3813            0   -248.27593            0   -248.27593    -150.1282 
Loop time of 0.00179291 on 1 procs for 1 steps with 3 atoms
run 1 pre no post no
Step Temp E_pair E_mol TotEng Press 
    3813            0   -248.27593            0   -248.27593    -150.1282 
    3814            0   -248.27593            0   -248.27593   -150.12811 
Loop time of 0.00176787 on 1 procs for 1 steps with 3 atoms
run 1 pre no post no
Step Temp E_pair E_mol TotEng Press 
    3814            0   -248.27593            0   -248.27593   -150.12811 
    3815            0   -248.27593            0   -248.27593    -150.1283 
Loop time of 0.00179482 on 1 procs for 1 steps with 3 atoms
run 1 pre no post no
Step Temp E_pair E_mol TotEng Press 
    3815            0   -248.27593            0   -248.27593    -150.1283 
    3816            0   -248.27593            0   -248.27593   -150.12822 
Loop time of 0.00172114 on 1 procs for 1 steps with 3 atoms
run 1 pre no post no
Step Temp E_pair E_mol TotEng Press 
    3816            0   -248.27593            0   -248.27593   -150.12822 
    3817            0   -248.27593            0   -248.27593   -150.12827 
Loop time of 0.0017221 on 1 procs for 1 steps with 3 atoms
run 1 pre no post no
Step Temp E_pair E_mol TotEng Press 
    3817            0   -248.27593            0   -248.27593   -150.12827 
    3818            0   -248.27593            0   -248.27593   -150.12823 
Loop time of 0.00178599 on 1 procs for 1 steps with 3 atoms
run 1 pre no post no
Step Temp E_pair E_mol TotEng Press 
    3818            0   -248.27593            0   -248.27593   -150.12823 
    3819            0   -248.27593            0   -248.27593   -150.12795 
Loop time of 0.00176787 on 1 procs for 1 steps with 3 atoms
run 1 pre no post no
Step Temp E_pair E_mol TotEng Press 
    3819            0   -248.27593            0   -248.27593   -150.12795 
    3820            0   -248.27593            0   -248.27593   -150.12801 
Loop time of 0.00173187 on 1 procs for 1 steps with 3 atoms
run 1 pre no post no
Step Temp E_pair E_mol TotEng Press 
    3820            0   -248.27593            0   -248.27593   -150.12801 
    3821            0   -248.27593            0   -248.27593   -150.12818 
Loop time of 0.00182009 on 1 procs for 1 steps with 3 atoms
run 1 pre no post no
Step Temp E_pair E_mol TotEng Press 
    3821            0   -248.27593            0   -248.27593   -150.12818 
    3822            0   -248.27593            0   -248.27593   -150.12826 
Loop time of 0.00181985 on 1 procs for 1 steps with 3 atoms
run 1 pre no post no
Step Temp E_pair E_mol TotEng Press 
    3822            0   -248.27593            0   -248.27593   -150.12826 
    3823            0   -248.27593            0   -248.27593   -150.12841 
Loop time of 0.00179982 on 1 procs for 1 steps with 3 atoms
run 1 pre no post no
Step Temp E_pair E_mol TotEng Press 
    3823            0   -248.27593            0   -248.27593   -150.12841 
    3824            0   -248.27593            0   -248.27593   -150.12814 
Loop time of 0.00174403 on 1 procs for 1 steps with 3 atoms
run 1 pre no post no
Step Temp E_pair E_mol TotEng Press 
    3824            0   -248.27593            0   -248.27593   -150.12814 
    3825            0   -248.27593            0   -248.27593   -150.12813 
Loop time of 0.0018301 on 1 procs for 1 steps with 3 atoms
run 1 pre no post no
Step Temp E_pair E_mol TotEng Press 
    3825            0   -248.27593            0   -248.27593   -150.12813 
    3826            0   -248.27593            0   -248.27593   -150.12819 
Loop time of 0.00182486 on 1 procs for 1 steps with 3 atoms
run 1 pre no post no
Step Temp E_pair E_mol TotEng Press 
    3826            0   -248.27593            0   -248.27593   -150.12819 
    3827            0   -248.27593            0   -248.27593   -150.12806 
Loop time of 0.001724 on 1 procs for 1 steps with 3 atoms
run 1 pre no post no
Step Temp E_pair E_mol TotEng Press 
    3827            0   -248.27593            0   -248.27593   -150.12806 
    3828            0   -248.27593            0   -248.27593   -150.12823 
Loop time of 0.00178289 on 1 procs for 1 steps with 3 atoms
run 1 pre no post no
Step Temp E_pair E_mol TotEng Press 
    3828            0   -248.27593            0   -248.27593   -150.12823 
    3829            0   -248.27593            0   -248.27593   -150.12817 
Loop time of 0.00178385 on 1 procs for 1 steps with 3 atoms
run 1 pre no post no
Step Temp E_pair E_mol TotEng Press 
    3829            0   -248.27593            0   -248.27593   -150.12817 
    3830            0   -248.27593            0   -248.27593   -150.12809 
Loop time of 0.00176501 on 1 procs for 1 steps with 3 atoms
run 1 pre no post no
Step Temp E_pair E_mol TotEng Press 
    3830            0   -248.27593            0   -248.27593   -150.12809 
    3831            0   -248.27593            0   -248.27593   -150.12821 
Loop time of 0.00179005 on 1 procs for 1 steps with 3 atoms
run 1 pre no post no
Step Temp E_pair E_mol TotEng Press 
    3831            0   -248.27593            0   -248.27593   -150.12821 
    3832            0   -248.27593            0   -248.27593   -150.12818 
Loop time of 0.00169206 on 1 procs for 1 steps with 3 atoms
run 1 pre no post no
Step Temp E_pair E_mol TotEng Press 
    3832            0   -248.27593            0   -248.27593   -150.12818 
    3833            0   -248.27593            0   -248.27593   -150.12825 
Loop time of 0.00182605 on 1 procs for 1 steps with 3 atoms
run 1 pre no post no
Step Temp E_pair E_mol TotEng Press 
    3833            0   -248.27593            0   -248.27593   -150.12825 
    3834            0   -248.27593            0   -248.27593   -150.12822 
Loop time of 0.00180507 on 1 procs for 1 steps with 3 atoms
run 1 pre no post no
Step Temp E_pair E_mol TotEng Press 
    3834            0   -248.27593            0   -248.27593   -150.12822 
    3835            0   -248.27593            0   -248.27593   -150.12796 
Loop time of 0.00148487 on 1 procs for 1 steps with 3 atoms
run 1 pre no post no
Step Temp E_pair E_mol TotEng Press 
    3835            0   -248.27593            0   -248.27593   -150.12796 
    3836            0   -248.27593            0   -248.27593   -150.12807 
Loop time of 0.00174904 on 1 procs for 1 steps with 3 atoms
run 1 pre no post no
Step Temp E_pair E_mol TotEng Press 
    3836            0   -248.27593            0   -248.27593   -150.12807 
    3837            0   -248.27593            0   -248.27593   -150.12814 
Loop time of 0.0017662 on 1 procs for 1 steps with 3 atoms
run 1 pre no post no
Step Temp E_pair E_mol TotEng Press 
    3837            0   -248.27593            0   -248.27593   -150.12814 
    3838            0   -248.27593            0   -248.27593   -150.12826 
Loop time of 0.00178814 on 1 procs for 1 steps with 3 atoms
run 1 pre no post no
Step Temp E_pair E_mol TotEng Press 
    3838            0   -248.27593            0   -248.27593   -150.12826 
    3839            0   -248.27594            0   -248.27594   -150.12845 
Loop time of 0.00171089 on 1 procs for 1 steps with 3 atoms
run 1 pre no post no
Step Temp E_pair E_mol TotEng Press 
    3839            0   -248.27594            0   -248.27594   -150.12845 
    3840            0   -248.27593            0   -248.27593   -150.12818 
Loop time of 0.00178504 on 1 procs for 1 steps with 3 atoms
run 1 pre no post no
Step Temp E_pair E_mol TotEng Press 
    3840            0   -248.27593            0   -248.27593   -150.12818 
    3841            0   -248.27593            0   -248.27593   -150.12815 
Loop time of 0.00145483 on 1 procs for 1 steps with 3 atoms
run 1 pre no post no
Step Temp E_pair E_mol TotEng Press 
    3841            0   -248.27593            0   -248.27593   -150.12815 
    3842            0   -248.27593            0   -248.27593   -150.12818 
Loop time of 0.00138402 on 1 procs for 1 steps with 3 atoms
run 1 pre no post no
Step Temp E_pair E_mol TotEng Press 
    3842            0   -248.27593            0   -248.27593   -150.12818 
    3843            0   -248.27593            0   -248.27593   -150.12809 
Loop time of 0.00179482 on 1 procs for 1 steps with 3 atoms
run 1 pre no post no
Step Temp E_pair E_mol TotEng Press 
    3843            0   -248.27593            0   -248.27593   -150.12809 
    3844            0   -248.27593            0   -248.27593   -150.12828 
Loop time of 0.00171423 on 1 procs for 1 steps with 3 atoms
run 1 pre no post no
Step Temp E_pair E_mol TotEng Press 
    3844            0   -248.27593            0   -248.27593   -150.12828 
    3845            0   -248.27593            0   -248.27593   -150.12819 
Loop time of 0.00180006 on 1 procs for 1 steps with 3 atoms
run 1 pre no post no
Step Temp E_pair E_mol TotEng Press 
    3845            0   -248.27593            0   -248.27593   -150.12819 
    3846            0   -248.27593            0   -248.27593   -150.12812 
Loop time of 0.00178099 on 1 procs for 1 steps with 3 atoms
run 1 pre no post no
Step Temp E_pair E_mol TotEng Press 
    3846            0   -248.27593            0   -248.27593   -150.12812 
    3847            0   -248.27593            0   -248.27593   -150.12827 
Loop time of 0.00170803 on 1 procs for 1 steps with 3 atoms
run 1 pre no post no
Step Temp E_pair E_mol TotEng Press 
    3847            0   -248.27593            0   -248.27593   -150.12827 
    3848            0   -248.27593            0   -248.27593   -150.12811 
Loop time of 0.00183105 on 1 procs for 1 steps with 3 atoms
run 1 pre no post no
Step Temp E_pair E_mol TotEng Press 
    3848            0   -248.27593            0   -248.27593   -150.12811 
    3849            0   -248.27593            0   -248.27593   -150.12819 
Loop time of 0.00181389 on 1 procs for 1 steps with 3 atoms
run 1 pre no post no
Step Temp E_pair E_mol TotEng Press 
    3849            0   -248.27593            0   -248.27593   -150.12819 
    3850            0   -248.27593            0   -248.27593    -150.1283 
Loop time of 0.00181389 on 1 procs for 1 steps with 3 atoms
run 1 pre no post no
Step Temp E_pair E_mol TotEng Press 
    3850            0   -248.27593            0   -248.27593    -150.1283 
    3851            0   -248.27593            0   -248.27593   -150.12805 
Loop time of 0.00179887 on 1 procs for 1 steps with 3 atoms
run 1 pre no post no
Step Temp E_pair E_mol TotEng Press 
    3851            0   -248.27593            0   -248.27593   -150.12805 
    3852            0   -248.27593            0   -248.27593   -150.12813 
Loop time of 0.00175714 on 1 procs for 1 steps with 3 atoms

Please see the log.cite file for references relevant to this simulation

