LAMMPS (15 May 2015)
units		 real
atom_style	 full

read_data	 W2-dimer-data.water
  orthogonal box = (0 0 0) to (18.6445 18.6445 18.6445)
  1 by 1 by 1 MPI processor grid
  reading atoms ...
  6 atoms
  0 = max # of 1-2 neighbors
  0 = max # of 1-3 neighbors
  0 = max # of 1-4 neighbors
  1 = max # of special neighbors

pair_style   reax/c control.reaxc.water
pair_coeff   * * ffield_060614.reax H O

neighbor     30.0 nsq
neigh_modify once yes

fix          qeq all qeq/reax 1 0.0 10.0 1.0e-7 reax/c

neigh_modify delay 0 every 1 check yes
run 1 pre no post no
Neighbor list info ...
  2 neighbor list requests
  update every 1 steps, delay 0 steps, check yes
  master list distance cutoff = 40
WARNING: Proc sub-domain size < neighbor skin, could lead to lost atoms (../domain.cpp:833)
Memory usage per processor = 29.0386 Mbytes
Step Temp E_pair E_mol TotEng Press 
       0            0   -495.73431            0   -495.73431    260.48551 
       1            0   -495.73431            0   -495.73431    260.48551 
Loop time of 0.003299 on 1 procs for 1 steps with 6 atoms
run 1 pre no post no
Step Temp E_pair E_mol TotEng Press 
       1            0   -495.73431            0   -495.73431    260.48551 
       2            0   -501.12884            0   -501.12884   -131.90519 
Loop time of 0.00252891 on 1 procs for 1 steps with 6 atoms
run 1 pre no post no
Step Temp E_pair E_mol TotEng Press 
       2            0   -501.12884            0   -501.12884   -131.90519 
       3            0   -501.49012            0   -501.49012   -271.89237 
Loop time of 0.00254083 on 1 procs for 1 steps with 6 atoms
run 1 pre no post no
Step Temp E_pair E_mol TotEng Press 
       3            0   -501.49012            0   -501.49012   -271.89237 
       4            0   -500.60085            0   -500.60085    -321.3364 
Loop time of 0.00257993 on 1 procs for 1 steps with 6 atoms
run 1 pre no post no
Step Temp E_pair E_mol TotEng Press 
       4            0   -500.60085            0   -500.60085    -321.3364 
       5            0   -498.69842            0   -498.69842   -325.16476 
Loop time of 0.00234795 on 1 procs for 1 steps with 6 atoms
run 1 pre no post no
Step Temp E_pair E_mol TotEng Press 
       5            0   -498.69842            0   -498.69842   -325.16476 
       6            0   -497.81664            0   -497.81664   -312.08883 
Loop time of 0.00244713 on 1 procs for 1 steps with 6 atoms
run 1 pre no post no
Step Temp E_pair E_mol TotEng Press 
       6            0   -497.81664            0   -497.81664   -312.08883 
       7            0   -497.41457            0   -497.41457   -308.86723 
Loop time of 0.00233293 on 1 procs for 1 steps with 6 atoms
run 1 pre no post no
Step Temp E_pair E_mol TotEng Press 
       7            0   -497.41457            0   -497.41457   -308.86723 
       8            0   -496.96668            0   -496.96668   -305.49575 
Loop time of 0.00210094 on 1 procs for 1 steps with 6 atoms
run 1 pre no post no
Step Temp E_pair E_mol TotEng Press 
       8            0   -496.96668            0   -496.96668   -305.49575 
       9            0   -496.02108            0   -496.02108    360.63768 
Loop time of 0.00306296 on 1 procs for 1 steps with 6 atoms
run 1 pre no post no
Step Temp E_pair E_mol TotEng Press 
       9            0   -496.02108            0   -496.02108    360.63768 
      10            0   -499.72231            0   -499.72231   -211.52794 
Loop time of 0.00268102 on 1 procs for 1 steps with 6 atoms
run 1 pre no post no
Step Temp E_pair E_mol TotEng Press 
      10            0   -499.72231            0   -499.72231   -211.52794 
      11            0   -499.53845            0   -499.53845   -292.68558 
Loop time of 0.00250292 on 1 procs for 1 steps with 6 atoms
run 1 pre no post no
Step Temp E_pair E_mol TotEng Press 
      11            0   -499.53845            0   -499.53845   -292.68558 
      12            0   -499.03783            0   -499.03783   -313.22398 
Loop time of 0.00248694 on 1 procs for 1 steps with 6 atoms
run 1 pre no post no
Step Temp E_pair E_mol TotEng Press 
      12            0   -499.03783            0   -499.03783   -313.22398 
      13            0   -498.15555            0   -498.15555   -311.74622 
Loop time of 0.00235081 on 1 procs for 1 steps with 6 atoms
run 1 pre no post no
Step Temp E_pair E_mol TotEng Press 
      13            0   -498.15555            0   -498.15555   -311.74622 
      14            0   -497.67495            0   -497.67495   -308.75393 
Loop time of 0.00229812 on 1 procs for 1 steps with 6 atoms
run 1 pre no post no
Step Temp E_pair E_mol TotEng Press 
      14            0   -497.67495            0   -497.67495   -308.75393 
      15            0   -497.35707            0   -497.35707   -307.41389 
Loop time of 0.00236893 on 1 procs for 1 steps with 6 atoms
run 1 pre no post no
Step Temp E_pair E_mol TotEng Press 
      15            0   -497.35707            0   -497.35707   -307.41389 
      16            0   -496.98163            0   -496.98163   -304.23637 
Loop time of 0.00212502 on 1 procs for 1 steps with 6 atoms
run 1 pre no post no
Step Temp E_pair E_mol TotEng Press 
      16            0   -496.98163            0   -496.98163   -304.23637 
      17            0   -496.68017            0   -496.68017   -301.24022 
Loop time of 0.00213599 on 1 procs for 1 steps with 6 atoms
run 1 pre no post no
Step Temp E_pair E_mol TotEng Press 
      17            0   -496.68017            0   -496.68017   -301.24022 
      18            0   -496.71472            0   -496.71472    133.39732 
Loop time of 0.00297213 on 1 procs for 1 steps with 6 atoms
run 1 pre no post no
Step Temp E_pair E_mol TotEng Press 
      18            0   -496.71472            0   -496.71472    133.39732 
      19            0   -500.90596            0   -500.90596    13.967011 
Loop time of 0.00255704 on 1 procs for 1 steps with 6 atoms
run 1 pre no post no
Step Temp E_pair E_mol TotEng Press 
      19            0   -500.90596            0   -500.90596    13.967011 
      20            0   -502.62813            0   -502.62813   -218.17773 
Loop time of 0.00254607 on 1 procs for 1 steps with 6 atoms
run 1 pre no post no
Step Temp E_pair E_mol TotEng Press 
      20            0   -502.62813            0   -502.62813   -218.17773 
      21            0   -501.70406            0   -501.70406   -321.99899 
Loop time of 0.00254583 on 1 procs for 1 steps with 6 atoms
run 1 pre no post no
Step Temp E_pair E_mol TotEng Press 
      21            0   -501.70406            0   -501.70406   -321.99899 
      22            0   -499.20545            0   -499.20545    -331.9657 
Loop time of 0.00237298 on 1 procs for 1 steps with 6 atoms
run 1 pre no post no
Step Temp E_pair E_mol TotEng Press 
      22            0   -499.20545            0   -499.20545    -331.9657 
      23            0   -498.16817            0   -498.16817   -312.62398 
Loop time of 0.0027318 on 1 procs for 1 steps with 6 atoms
run 1 pre no post no
Step Temp E_pair E_mol TotEng Press 
      23            0   -498.16817            0   -498.16817   -312.62398 
      24            0   -497.81786            0   -497.81786   -307.54475 
Loop time of 0.0024302 on 1 procs for 1 steps with 6 atoms
run 1 pre no post no
Step Temp E_pair E_mol TotEng Press 
      24            0   -497.81786            0   -497.81786   -307.54475 
      25            0   -497.51087            0   -497.51087   -304.96499 
Loop time of 0.00215006 on 1 procs for 1 steps with 6 atoms
run 1 pre no post no
Step Temp E_pair E_mol TotEng Press 
      25            0   -497.51087            0   -497.51087   -304.96499 
      26            0   -487.33132            0   -487.33132    696.54751 
Loop time of 0.00275493 on 1 procs for 1 steps with 6 atoms
run 1 pre no post no
Step Temp E_pair E_mol TotEng Press 
      26            0   -487.33132            0   -487.33132    696.54751 
      27            0   -501.28945            0   -501.28945    107.14125 
Loop time of 0.0025599 on 1 procs for 1 steps with 6 atoms
run 1 pre no post no
Step Temp E_pair E_mol TotEng Press 
      27            0   -501.28945            0   -501.28945    107.14125 
      28            0   -502.84063            0   -502.84063   -229.24312 
Loop time of 0.00251603 on 1 procs for 1 steps with 6 atoms
run 1 pre no post no
Step Temp E_pair E_mol TotEng Press 
      28            0   -502.84063            0   -502.84063   -229.24312 
      29            0   -501.79125            0   -501.79125   -324.14286 
Loop time of 0.00250292 on 1 procs for 1 steps with 6 atoms
run 1 pre no post no
Step Temp E_pair E_mol TotEng Press 
      29            0   -501.79125            0   -501.79125   -324.14286 
      30            0   -499.29321            0   -499.29321   -332.65526 
Loop time of 0.00235295 on 1 procs for 1 steps with 6 atoms
run 1 pre no post no
Step Temp E_pair E_mol TotEng Press 
      30            0   -499.29321            0   -499.29321   -332.65526 
      31            0   -492.40254            0   -492.40254    380.06595 
Loop time of 0.00287604 on 1 procs for 1 steps with 6 atoms
run 1 pre no post no
Step Temp E_pair E_mol TotEng Press 
      31            0   -492.40254            0   -492.40254    380.06595 
      32            0   -501.20613            0   -501.20613   -265.82315 
Loop time of 0.00256491 on 1 procs for 1 steps with 6 atoms
run 1 pre no post no
Step Temp E_pair E_mol TotEng Press 
      32            0   -501.20613            0   -501.20613   -265.82315 
      33            0   -500.67763            0   -500.67763   -322.13612 
Loop time of 0.00257206 on 1 procs for 1 steps with 6 atoms
run 1 pre no post no
Step Temp E_pair E_mol TotEng Press 
      33            0   -500.67763            0   -500.67763   -322.13612 
      34            0   -498.86643            0   -498.86643   -326.64032 
Loop time of 0.00235105 on 1 procs for 1 steps with 6 atoms
run 1 pre no post no
Step Temp E_pair E_mol TotEng Press 
      34            0   -498.86643            0   -498.86643   -326.64032 
      35            0   -495.00909            0   -495.00909    311.70812 
Loop time of 0.00307107 on 1 procs for 1 steps with 6 atoms
run 1 pre no post no
Step Temp E_pair E_mol TotEng Press 
      35            0   -495.00909            0   -495.00909    311.70812 
      36            0   -499.16581            0   -499.16581   -223.22827 
Loop time of 0.00264978 on 1 procs for 1 steps with 6 atoms
run 1 pre no post no
Step Temp E_pair E_mol TotEng Press 
      36            0   -499.16581            0   -499.16581   -223.22827 
      37            0   -499.34299            0   -499.34299   -292.87712 
Loop time of 0.00248003 on 1 procs for 1 steps with 6 atoms
run 1 pre no post no
Step Temp E_pair E_mol TotEng Press 
      37            0   -499.34299            0   -499.34299   -292.87712 
      38            0   -499.06738            0   -499.06738   -309.91663 
Loop time of 0.00248194 on 1 procs for 1 steps with 6 atoms
run 1 pre no post no
Step Temp E_pair E_mol TotEng Press 
      38            0   -499.06738            0   -499.06738   -309.91663 
      39            0   -498.45168            0   -498.45168   -310.55717 
Loop time of 0.0024848 on 1 procs for 1 steps with 6 atoms
run 1 pre no post no
Step Temp E_pair E_mol TotEng Press 
      39            0   -498.45168            0   -498.45168   -310.55717 
      40            0   -495.95111            0   -495.95111    437.79367 
Loop time of 0.00296593 on 1 procs for 1 steps with 6 atoms
run 1 pre no post no
Step Temp E_pair E_mol TotEng Press 
      40            0   -495.95111            0   -495.95111    437.79367 
      41            0   -500.29603            0   -500.29603   -176.62241 
Loop time of 0.00265002 on 1 procs for 1 steps with 6 atoms
run 1 pre no post no
Step Temp E_pair E_mol TotEng Press 
      41            0   -500.29603            0   -500.29603   -176.62241 
      42            0   -500.13342            0   -500.13342    -288.7469 
Loop time of 0.00251007 on 1 procs for 1 steps with 6 atoms
run 1 pre no post no
Step Temp E_pair E_mol TotEng Press 
      42            0   -500.13342            0   -500.13342    -288.7469 
      43            0   -499.48474            0   -499.48474   -316.61796 
Loop time of 0.00246596 on 1 procs for 1 steps with 6 atoms
run 1 pre no post no
Step Temp E_pair E_mol TotEng Press 
      43            0   -499.48474            0   -499.48474   -316.61796 
      44            0   -498.35887            0   -498.35887   -314.95715 
Loop time of 0.00230002 on 1 procs for 1 steps with 6 atoms
run 1 pre no post no
Step Temp E_pair E_mol TotEng Press 
      44            0   -498.35887            0   -498.35887   -314.95715 
      45            0   -499.37175            0   -499.37175   -266.10576 
Loop time of 0.00266695 on 1 procs for 1 steps with 6 atoms
run 1 pre no post no
Step Temp E_pair E_mol TotEng Press 
      45            0   -499.37175            0   -499.37175   -266.10576 
      46            0   -499.39133            0   -499.39133   -305.06698 
Loop time of 0.00264597 on 1 procs for 1 steps with 6 atoms
run 1 pre no post no
Step Temp E_pair E_mol TotEng Press 
      46            0   -499.39133            0   -499.39133   -305.06698 
      47            0   -499.18891            0   -499.18891   -311.89248 
Loop time of 0.00235891 on 1 procs for 1 steps with 6 atoms
run 1 pre no post no
Step Temp E_pair E_mol TotEng Press 
      47            0   -499.18891            0   -499.18891   -311.89248 
      48            0   -498.63236            0   -498.63236   -310.23006 
Loop time of 0.00234795 on 1 procs for 1 steps with 6 atoms
run 1 pre no post no
Step Temp E_pair E_mol TotEng Press 
      48            0   -498.63236            0   -498.63236   -310.23006 
      49            0   -498.26364            0   -498.26364   -308.73564 
Loop time of 0.00235295 on 1 procs for 1 steps with 6 atoms
run 1 pre no post no
Step Temp E_pair E_mol TotEng Press 
      49            0   -498.26364            0   -498.26364   -308.73564 
      50            0   -497.98145            0   -497.98145   -307.35871 
Loop time of 0.00229001 on 1 procs for 1 steps with 6 atoms
run 1 pre no post no
Step Temp E_pair E_mol TotEng Press 
      50            0   -497.98145            0   -497.98145   -307.35871 
      51            0   -497.60895            0   -497.60895   -305.56304 
Loop time of 0.00210309 on 1 procs for 1 steps with 6 atoms
run 1 pre no post no
Step Temp E_pair E_mol TotEng Press 
      51            0   -497.60895            0   -497.60895   -305.56304 
      52            0    -496.9962            0    -496.9962   -308.74611 
Loop time of 0.00206304 on 1 procs for 1 steps with 6 atoms
run 1 pre no post no
Step Temp E_pair E_mol TotEng Press 
      52            0    -496.9962            0    -496.9962   -308.74611 
      53            0   -496.78971            0   -496.78971   -222.62533 
Loop time of 0.00288105 on 1 procs for 1 steps with 6 atoms
run 1 pre no post no
Step Temp E_pair E_mol TotEng Press 
      53            0   -496.78971            0   -496.78971   -222.62533 
      54            0   -497.82809            0   -497.82809   -304.36515 
Loop time of 0.00233483 on 1 procs for 1 steps with 6 atoms
run 1 pre no post no
Step Temp E_pair E_mol TotEng Press 
      54            0   -497.82809            0   -497.82809   -304.36515 
      55            0   -490.52881            0   -490.52881    314.70398 
Loop time of 0.00273013 on 1 procs for 1 steps with 6 atoms
run 1 pre no post no
Step Temp E_pair E_mol TotEng Press 
      55            0   -490.52881            0   -490.52881    314.70398 
      56            0   -497.91428            0   -497.91428   -320.26083 
Loop time of 0.00253105 on 1 procs for 1 steps with 6 atoms
run 1 pre no post no
Step Temp E_pair E_mol TotEng Press 
      56            0   -497.91428            0   -497.91428   -320.26083 
      57            0   -487.70756            0   -487.70756   -175.85934 
Loop time of 0.00300598 on 1 procs for 1 steps with 6 atoms
run 1 pre no post no
Step Temp E_pair E_mol TotEng Press 
      57            0   -487.70756            0   -487.70756   -175.85934 
      58            0   -499.88132            0   -499.88132   -118.06208 
Loop time of 0.002563 on 1 procs for 1 steps with 6 atoms
run 1 pre no post no
Step Temp E_pair E_mol TotEng Press 
      58            0   -499.88132            0   -499.88132   -118.06208 
      59            0    -498.9686            0    -498.9686   -321.21455 
Loop time of 0.0023632 on 1 procs for 1 steps with 6 atoms
run 1 pre no post no
Step Temp E_pair E_mol TotEng Press 
      59            0    -498.9686            0    -498.9686   -321.21455 
      60            0   -500.23318            0   -500.23318   -294.80815 
Loop time of 0.00255489 on 1 procs for 1 steps with 6 atoms
run 1 pre no post no
Step Temp E_pair E_mol TotEng Press 
      60            0   -500.23318            0   -500.23318   -294.80815 
      61            0    -500.3774            0    -500.3774   -125.53015 
Loop time of 0.00254512 on 1 procs for 1 steps with 6 atoms
run 1 pre no post no
Step Temp E_pair E_mol TotEng Press 
      61            0    -500.3774            0    -500.3774   -125.53015 
      62            0    -499.2308            0    -499.2308    -323.3325 
Loop time of 0.00238013 on 1 procs for 1 steps with 6 atoms
run 1 pre no post no
Step Temp E_pair E_mol TotEng Press 
      62            0    -499.2308            0    -499.2308    -323.3325 
      63            0    -500.5783            0    -500.5783    -298.2033 
Loop time of 0.00254393 on 1 procs for 1 steps with 6 atoms
run 1 pre no post no
Step Temp E_pair E_mol TotEng Press 
      63            0    -500.5783            0    -500.5783    -298.2033 
      64            0   -500.13018            0   -500.13018   -128.32785 
Loop time of 0.00255394 on 1 procs for 1 steps with 6 atoms
run 1 pre no post no
Step Temp E_pair E_mol TotEng Press 
      64            0   -500.13018            0   -500.13018   -128.32785 
      65            0   -499.30077            0   -499.30077   -323.12771 
Loop time of 0.00236607 on 1 procs for 1 steps with 6 atoms
run 1 pre no post no
Step Temp E_pair E_mol TotEng Press 
      65            0   -499.30077            0   -499.30077   -323.12771 
      66            0   -500.51927            0   -500.51927   -297.50035 
Loop time of 0.00254488 on 1 procs for 1 steps with 6 atoms
run 1 pre no post no
Step Temp E_pair E_mol TotEng Press 
      66            0   -500.51927            0   -500.51927   -297.50035 
      67            0   -500.79665            0   -500.79665   -142.80468 
Loop time of 0.00254607 on 1 procs for 1 steps with 6 atoms
run 1 pre no post no
Step Temp E_pair E_mol TotEng Press 
      67            0   -500.79665            0   -500.79665   -142.80468 
      68            0   -499.39138            0   -499.39138    -324.1578 
Loop time of 0.00236416 on 1 procs for 1 steps with 6 atoms
run 1 pre no post no
Step Temp E_pair E_mol TotEng Press 
      68            0   -499.39138            0   -499.39138    -324.1578 
      69            0    -500.7406            0    -500.7406   -301.06234 
Loop time of 0.00253081 on 1 procs for 1 steps with 6 atoms
run 1 pre no post no
Step Temp E_pair E_mol TotEng Press 
      69            0    -500.7406            0    -500.7406   -301.06234 
      70            0   -499.23003            0   -499.23003   -119.30579 
Loop time of 0.00261617 on 1 procs for 1 steps with 6 atoms
run 1 pre no post no
Step Temp E_pair E_mol TotEng Press 
      70            0   -499.23003            0   -499.23003   -119.30579 
      71            0   -499.09042            0   -499.09042   -320.75117 
Loop time of 0.00233603 on 1 procs for 1 steps with 6 atoms
run 1 pre no post no
Step Temp E_pair E_mol TotEng Press 
      71            0   -499.09042            0   -499.09042   -320.75117 
      72            0   -500.08176            0   -500.08176   -292.82794 
Loop time of 0.00254583 on 1 procs for 1 steps with 6 atoms
run 1 pre no post no
Step Temp E_pair E_mol TotEng Press 
      72            0   -500.08176            0   -500.08176   -292.82794 
      73            0   -498.13185            0   -498.13185   -150.08045 
Loop time of 0.00280404 on 1 procs for 1 steps with 6 atoms
run 1 pre no post no
Step Temp E_pair E_mol TotEng Press 
      73            0   -498.13185            0   -498.13185   -150.08045 
      74            0   -497.57663            0   -497.57663      -312.43 
Loop time of 0.00238395 on 1 procs for 1 steps with 6 atoms
run 1 pre no post no
Step Temp E_pair E_mol TotEng Press 
      74            0   -497.57663            0   -497.57663      -312.43 
      75            0   -498.47195            0   -498.47195   -291.25499 
Loop time of 0.00253105 on 1 procs for 1 steps with 6 atoms
run 1 pre no post no
Step Temp E_pair E_mol TotEng Press 
      75            0   -498.47195            0   -498.47195   -291.25499 
      76            0    -495.8838            0    -495.8838   -243.22573 
Loop time of 0.00265098 on 1 procs for 1 steps with 6 atoms
run 1 pre no post no
Step Temp E_pair E_mol TotEng Press 
      76            0    -495.8838            0    -495.8838   -243.22573 
      77            0   -497.55058            0   -497.55058    -297.6699 
Loop time of 0.00237703 on 1 procs for 1 steps with 6 atoms
run 1 pre no post no
Step Temp E_pair E_mol TotEng Press 
      77            0   -497.55058            0   -497.55058    -297.6699 
      78            0   -497.10308            0   -497.10308   -278.73707 
Loop time of 0.00238204 on 1 procs for 1 steps with 6 atoms
run 1 pre no post no
Step Temp E_pair E_mol TotEng Press 
      78            0   -497.10308            0   -497.10308   -278.73707 
      79            0   -496.62197            0   -496.62197   -250.02583 
Loop time of 0.00267005 on 1 procs for 1 steps with 6 atoms
run 1 pre no post no
Step Temp E_pair E_mol TotEng Press 
      79            0   -496.62197            0   -496.62197   -250.02583 
      80            0   -497.92243            0   -497.92243   -300.77759 
Loop time of 0.00234079 on 1 procs for 1 steps with 6 atoms
run 1 pre no post no
Step Temp E_pair E_mol TotEng Press 
      80            0   -497.92243            0   -497.92243   -300.77759 
      81            0   -497.63855            0   -497.63855   -283.45243 
Loop time of 0.00237417 on 1 procs for 1 steps with 6 atoms
run 1 pre no post no
Step Temp E_pair E_mol TotEng Press 
      81            0   -497.63855            0   -497.63855   -283.45243 
      82            0   -497.53966            0   -497.53966   -258.65445 
Loop time of 0.00263691 on 1 procs for 1 steps with 6 atoms
run 1 pre no post no
Step Temp E_pair E_mol TotEng Press 
      82            0   -497.53966            0   -497.53966   -258.65445 
      83            0   -498.37152            0   -498.37152   -304.19363 
Loop time of 0.00239301 on 1 procs for 1 steps with 6 atoms
run 1 pre no post no
Step Temp E_pair E_mol TotEng Press 
      83            0   -498.37152            0   -498.37152   -304.19363 
      84            0   -498.29287            0   -498.29287   -288.90817 
Loop time of 0.00234818 on 1 procs for 1 steps with 6 atoms
run 1 pre no post no
Step Temp E_pair E_mol TotEng Press 
      84            0   -498.29287            0   -498.29287   -288.90817 
      85            0   -497.14251            0   -497.14251   -254.15354 
Loop time of 0.00264812 on 1 procs for 1 steps with 6 atoms
run 1 pre no post no
Step Temp E_pair E_mol TotEng Press 
      85            0   -497.14251            0   -497.14251   -254.15354 
      86            0   -498.22118            0   -498.22118   -303.12015 
Loop time of 0.00233793 on 1 procs for 1 steps with 6 atoms
run 1 pre no post no
Step Temp E_pair E_mol TotEng Press 
      86            0   -498.22118            0   -498.22118   -303.12015 
      87            0     -498.043            0     -498.043   -286.71627 
Loop time of 0.00233293 on 1 procs for 1 steps with 6 atoms
run 1 pre no post no
Step Temp E_pair E_mol TotEng Press 
      87            0     -498.043            0     -498.043   -286.71627 
      88            0   -497.57116            0   -497.57116   -258.19915 
Loop time of 0.00264692 on 1 procs for 1 steps with 6 atoms
run 1 pre no post no
Step Temp E_pair E_mol TotEng Press 
      88            0   -497.57116            0   -497.57116   -258.19915 
      89            0   -498.38895            0   -498.38895   -304.13768 
Loop time of 0.00233412 on 1 procs for 1 steps with 6 atoms
run 1 pre no post no
Step Temp E_pair E_mol TotEng Press 
      89            0   -498.38895            0   -498.38895   -304.13768 
      90            0   -498.31844            0   -498.31844   -288.87748 
Loop time of 0.00233293 on 1 procs for 1 steps with 6 atoms
run 1 pre no post no
Step Temp E_pair E_mol TotEng Press 
      90            0   -498.31844            0   -498.31844   -288.87748 
      91            0   -493.83447            0   -493.83447    -233.7509 
Loop time of 0.00284982 on 1 procs for 1 steps with 6 atoms
run 1 pre no post no
Step Temp E_pair E_mol TotEng Press 
      91            0   -493.83447            0   -493.83447    -233.7509 
      92            0   -496.23808            0   -496.23808   -290.31659 
Loop time of 0.00235796 on 1 procs for 1 steps with 6 atoms
run 1 pre no post no
Step Temp E_pair E_mol TotEng Press 
      92            0   -496.23808            0   -496.23808   -290.31659 
      93            0    -495.4892            0    -495.4892   -271.16796 
Loop time of 0.0023911 on 1 procs for 1 steps with 6 atoms
run 1 pre no post no
Step Temp E_pair E_mol TotEng Press 
      93            0    -495.4892            0    -495.4892   -271.16796 
      94            0   -499.53058            0   -499.53058   -122.11372 
Loop time of 0.00250292 on 1 procs for 1 steps with 6 atoms
run 1 pre no post no
Step Temp E_pair E_mol TotEng Press 
      94            0   -499.53058            0   -499.53058   -122.11372 
      95            0   -498.82061            0   -498.82061   -319.60738 
Loop time of 0.00237083 on 1 procs for 1 steps with 6 atoms
run 1 pre no post no
Step Temp E_pair E_mol TotEng Press 
      95            0   -498.82061            0   -498.82061   -319.60738 
      96            0   -499.95299            0   -499.95299   -292.98223 
Loop time of 0.00250196 on 1 procs for 1 steps with 6 atoms
run 1 pre no post no
Step Temp E_pair E_mol TotEng Press 
      96            0   -499.95299            0   -499.95299   -292.98223 
      97            0   -499.96792            0   -499.96792   -141.82044 
Loop time of 0.00252199 on 1 procs for 1 steps with 6 atoms
run 1 pre no post no
Step Temp E_pair E_mol TotEng Press 
      97            0   -499.96792            0   -499.96792   -141.82044 
      98            0   -498.96327            0   -498.96327   -320.66086 
Loop time of 0.00236011 on 1 procs for 1 steps with 6 atoms
run 1 pre no post no
Step Temp E_pair E_mol TotEng Press 
      98            0   -498.96327            0   -498.96327   -320.66086 
      99            0    -500.0928            0    -500.0928   -296.39662 
Loop time of 0.00251508 on 1 procs for 1 steps with 6 atoms
run 1 pre no post no
Step Temp E_pair E_mol TotEng Press 
      99            0    -500.0928            0    -500.0928   -296.39662 
     100            0   -500.35536            0   -500.35536    -144.5407 
Loop time of 0.00250387 on 1 procs for 1 steps with 6 atoms
run 1 pre no post no
Step Temp E_pair E_mol TotEng Press 
     100            0   -500.35536            0   -500.35536    -144.5407 
     101            0   -499.25256            0   -499.25256   -322.63599 
Loop time of 0.00234985 on 1 procs for 1 steps with 6 atoms
run 1 pre no post no
Step Temp E_pair E_mol TotEng Press 
     101            0   -499.25256            0   -499.25256   -322.63599 
     102            0   -500.45264            0   -500.45264    -298.9383 
Loop time of 0.00248718 on 1 procs for 1 steps with 6 atoms
run 1 pre no post no
Step Temp E_pair E_mol TotEng Press 
     102            0   -500.45264            0   -500.45264    -298.9383 
     103            0   -499.88997            0   -499.88997   -135.09842 
Loop time of 0.00252604 on 1 procs for 1 steps with 6 atoms
run 1 pre no post no
Step Temp E_pair E_mol TotEng Press 
     103            0   -499.88997            0   -499.88997   -135.09842 
     104            0   -499.15024            0   -499.15024   -321.80561 
Loop time of 0.00235891 on 1 procs for 1 steps with 6 atoms
run 1 pre no post no
Step Temp E_pair E_mol TotEng Press 
     104            0   -499.15024            0   -499.15024   -321.80561 
     105            0   -500.26663            0   -500.26663   -296.61217 
Loop time of 0.00250912 on 1 procs for 1 steps with 6 atoms
run 1 pre no post no
Step Temp E_pair E_mol TotEng Press 
     105            0   -500.26663            0   -500.26663   -296.61217 
     106            0   -500.38088            0   -500.38088   -130.13476 
Loop time of 0.00261688 on 1 procs for 1 steps with 6 atoms
run 1 pre no post no
Step Temp E_pair E_mol TotEng Press 
     106            0   -500.38088            0   -500.38088   -130.13476 
     107            0   -499.38746            0   -499.38746   -323.54343 
Loop time of 0.00237298 on 1 procs for 1 steps with 6 atoms
run 1 pre no post no
Step Temp E_pair E_mol TotEng Press 
     107            0   -499.38746            0   -499.38746   -323.54343 
     108            0   -500.67271            0   -500.67271    -298.4241 
Loop time of 0.00249887 on 1 procs for 1 steps with 6 atoms
run 1 pre no post no
Step Temp E_pair E_mol TotEng Press 
     108            0   -500.67271            0   -500.67271    -298.4241 
     109            0   -497.95711            0   -497.95711   -172.46135 
Loop time of 0.0032208 on 1 procs for 1 steps with 6 atoms
run 1 pre no post no
Step Temp E_pair E_mol TotEng Press 
     109            0   -497.95711            0   -497.95711   -172.46135 
     110            0    -497.3354            0    -497.3354   -310.44867 
Loop time of 0.00240493 on 1 procs for 1 steps with 6 atoms
run 1 pre no post no
Step Temp E_pair E_mol TotEng Press 
     110            0    -497.3354            0    -497.3354   -310.44867 
     111            0   -498.07044            0   -498.07044   -290.66994 
Loop time of 0.0024879 on 1 procs for 1 steps with 6 atoms
run 1 pre no post no
Step Temp E_pair E_mol TotEng Press 
     111            0   -498.07044            0   -498.07044   -290.66994 
     112            0   -492.95123            0   -492.95123   -179.39777 
Loop time of 0.00275302 on 1 procs for 1 steps with 6 atoms
run 1 pre no post no
Step Temp E_pair E_mol TotEng Press 
     112            0   -492.95123            0   -492.95123   -179.39777 
     113            0   -495.96188            0   -495.96188   -287.40416 
Loop time of 0.00234914 on 1 procs for 1 steps with 6 atoms
run 1 pre no post no
Step Temp E_pair E_mol TotEng Press 
     113            0   -495.96188            0   -495.96188   -287.40416 
     114            0    -495.0056            0    -495.0056   -256.01581 
Loop time of 0.0025661 on 1 procs for 1 steps with 6 atoms
run 1 pre no post no
Step Temp E_pair E_mol TotEng Press 
     114            0    -495.0056            0    -495.0056   -256.01581 
     115            0   -494.33208            0   -494.33208   -187.81608 
Loop time of 0.00277781 on 1 procs for 1 steps with 6 atoms
run 1 pre no post no
Step Temp E_pair E_mol TotEng Press 
     115            0   -494.33208            0   -494.33208   -187.81608 
     116            0   -496.63322            0   -496.63322   -292.88187 
Loop time of 0.00237298 on 1 procs for 1 steps with 6 atoms
run 1 pre no post no
Step Temp E_pair E_mol TotEng Press 
     116            0   -496.63322            0   -496.63322   -292.88187 
     117            0   -495.99876            0   -495.99876   -264.09104 
Loop time of 0.00254917 on 1 procs for 1 steps with 6 atoms
run 1 pre no post no
Step Temp E_pair E_mol TotEng Press 
     117            0   -495.99876            0   -495.99876   -264.09104 
     118            0   -495.50435            0   -495.50435   -194.88318 
Loop time of 0.00280499 on 1 procs for 1 steps with 6 atoms
run 1 pre no post no
Step Temp E_pair E_mol TotEng Press 
     118            0   -495.50435            0   -495.50435   -194.88318 
     119            0   -497.27441            0   -497.27441   -297.79149 
Loop time of 0.00242591 on 1 procs for 1 steps with 6 atoms
run 1 pre no post no
Step Temp E_pair E_mol TotEng Press 
     119            0   -497.27441            0   -497.27441   -297.79149 
     120            0    -496.8996            0    -496.8996   -271.05949 
Loop time of 0.00257206 on 1 procs for 1 steps with 6 atoms
run 1 pre no post no
Step Temp E_pair E_mol TotEng Press 
     120            0    -496.8996            0    -496.8996   -271.05949 
     121            0   -495.37728            0   -495.37728   -194.07812 
Loop time of 0.00280595 on 1 procs for 1 steps with 6 atoms
run 1 pre no post no
Step Temp E_pair E_mol TotEng Press 
     121            0   -495.37728            0   -495.37728   -194.07812 
     122            0   -497.19769            0   -497.19769   -297.38107 
Loop time of 0.00236201 on 1 procs for 1 steps with 6 atoms
run 1 pre no post no
Step Temp E_pair E_mol TotEng Press 
     122            0   -497.19769            0   -497.19769   -297.38107 
     123            0   -496.79854            0   -496.79854   -270.46422 
Loop time of 0.0025382 on 1 procs for 1 steps with 6 atoms
run 1 pre no post no
Step Temp E_pair E_mol TotEng Press 
     123            0   -496.79854            0   -496.79854   -270.46422 
     124            0   -495.29244            0   -495.29244   -196.80731 
Loop time of 0.00280094 on 1 procs for 1 steps with 6 atoms
run 1 pre no post no
Step Temp E_pair E_mol TotEng Press 
     124            0   -495.29244            0   -495.29244   -196.80731 
     125            0   -497.18672            0   -497.18672   -296.92455 
Loop time of 0.00236893 on 1 procs for 1 steps with 6 atoms
run 1 pre no post no
Step Temp E_pair E_mol TotEng Press 
     125            0   -497.18672            0   -497.18672   -296.92455 
     126            0    -496.7413            0    -496.7413   -269.80961 
Loop time of 0.00257921 on 1 procs for 1 steps with 6 atoms
run 1 pre no post no
Step Temp E_pair E_mol TotEng Press 
     126            0    -496.7413            0    -496.7413   -269.80961 
     127            0   -489.97167            0   -489.97167   -78.522163 
Loop time of 0.00281692 on 1 procs for 1 steps with 6 atoms
run 1 pre no post no
Step Temp E_pair E_mol TotEng Press 
     127            0   -489.97167            0   -489.97167   -78.522163 
     128            0   -495.15591            0   -495.15591   -281.12803 
Loop time of 0.002388 on 1 procs for 1 steps with 6 atoms
run 1 pre no post no
Step Temp E_pair E_mol TotEng Press 
     128            0   -495.15591            0   -495.15591   -281.12803 
     129            0   -493.64889            0   -493.64889   -248.52667 
Loop time of 0.00252485 on 1 procs for 1 steps with 6 atoms
run 1 pre no post no
Step Temp E_pair E_mol TotEng Press 
     129            0   -493.64889            0   -493.64889   -248.52667 
     130            0   -488.72488            0   -488.72488   -173.16293 
Loop time of 0.00263691 on 1 procs for 1 steps with 6 atoms
run 1 pre no post no
Step Temp E_pair E_mol TotEng Press 
     130            0   -488.72488            0   -488.72488   -173.16293 
     131            0   -494.84264            0   -494.84264   -268.03304 
Loop time of 0.00237393 on 1 procs for 1 steps with 6 atoms
run 1 pre no post no
Step Temp E_pair E_mol TotEng Press 
     131            0   -494.84264            0   -494.84264   -268.03304 
     132            0   -492.51517            0   -492.51517   -221.81537 
Loop time of 0.00240993 on 1 procs for 1 steps with 6 atoms
run 1 pre no post no
Step Temp E_pair E_mol TotEng Press 
     132            0   -492.51517            0   -492.51517   -221.81537 
     133            0   -489.47132            0   -489.47132   -178.37742 
Loop time of 0.00261903 on 1 procs for 1 steps with 6 atoms
run 1 pre no post no
Step Temp E_pair E_mol TotEng Press 
     133            0   -489.47132            0   -489.47132   -178.37742 
     134            0   -495.31117            0   -495.31117   -271.42235 
Loop time of 0.002388 on 1 procs for 1 steps with 6 atoms
run 1 pre no post no
Step Temp E_pair E_mol TotEng Press 
     134            0   -495.31117            0   -495.31117   -271.42235 
     135            0   -493.12465            0   -493.12465   -226.10283 
Loop time of 0.00237107 on 1 procs for 1 steps with 6 atoms
run 1 pre no post no
Step Temp E_pair E_mol TotEng Press 
     135            0   -493.12465            0   -493.12465   -226.10283 
     136            0   -490.56737            0   -490.56737   -186.71408 
Loop time of 0.00260901 on 1 procs for 1 steps with 6 atoms
run 1 pre no post no
Step Temp E_pair E_mol TotEng Press 
     136            0   -490.56737            0   -490.56737   -186.71408 
     137            0   -495.96197            0   -495.96197   -276.00472 
Loop time of 0.00236797 on 1 procs for 1 steps with 6 atoms
run 1 pre no post no
Step Temp E_pair E_mol TotEng Press 
     137            0   -495.96197            0   -495.96197   -276.00472 
     138            0   -493.99382            0   -493.99382   -232.44349 
Loop time of 0.00238204 on 1 procs for 1 steps with 6 atoms
run 1 pre no post no
Step Temp E_pair E_mol TotEng Press 
     138            0   -493.99382            0   -493.99382   -232.44349 
     139            0   -490.28708            0   -490.28708   -184.44865 
Loop time of 0.00262499 on 1 procs for 1 steps with 6 atoms
run 1 pre no post no
Step Temp E_pair E_mol TotEng Press 
     139            0   -490.28708            0   -490.28708   -184.44865 
     140            0   -495.81555            0   -495.81555   -275.10773 
Loop time of 0.0023818 on 1 procs for 1 steps with 6 atoms
run 1 pre no post no
Step Temp E_pair E_mol TotEng Press 
     140            0   -495.81555            0   -495.81555   -275.10773 
     141            0   -493.78537            0   -493.78537   -230.95083 
Loop time of 0.00236607 on 1 procs for 1 steps with 6 atoms
run 1 pre no post no
Step Temp E_pair E_mol TotEng Press 
     141            0   -493.78537            0   -493.78537   -230.95083 
     142            0   -490.80564            0   -490.80564   -189.15097 
Loop time of 0.002635 on 1 procs for 1 steps with 6 atoms
run 1 pre no post no
Step Temp E_pair E_mol TotEng Press 
     142            0   -490.80564            0   -490.80564   -189.15097 
     143            0   -496.07324            0   -496.07324   -276.84987 
Loop time of 0.00239301 on 1 procs for 1 steps with 6 atoms
run 1 pre no post no
Step Temp E_pair E_mol TotEng Press 
     143            0   -496.07324            0   -496.07324   -276.84987 
     144            0   -494.16198            0   -494.16198   -234.00671 
Loop time of 0.00243688 on 1 procs for 1 steps with 6 atoms
run 1 pre no post no
Step Temp E_pair E_mol TotEng Press 
     144            0   -494.16198            0   -494.16198   -234.00671 
     145            0    -489.6539            0    -489.6539   -179.64472 
Loop time of 0.00255108 on 1 procs for 1 steps with 6 atoms
run 1 pre no post no
Step Temp E_pair E_mol TotEng Press 
     145            0    -489.6539            0    -489.6539   -179.64472 
     146            0   -494.80724            0   -494.80724   -272.07839 
Loop time of 0.00236297 on 1 procs for 1 steps with 6 atoms
run 1 pre no post no
Step Temp E_pair E_mol TotEng Press 
     146            0   -494.80724            0   -494.80724   -272.07839 
     147            0   -492.85753            0   -492.85753   -234.13939 
Loop time of 0.00235915 on 1 procs for 1 steps with 6 atoms
run 1 pre no post no
Step Temp E_pair E_mol TotEng Press 
     147            0   -492.85753            0   -492.85753   -234.13939 
     148            0   -492.08596            0   -492.08596   -169.84908 
Loop time of 0.00275421 on 1 procs for 1 steps with 6 atoms
run 1 pre no post no
Step Temp E_pair E_mol TotEng Press 
     148            0   -492.08596            0   -492.08596   -169.84908 
     149            0   -495.69382            0   -495.69382   -285.08773 
Loop time of 0.00236297 on 1 procs for 1 steps with 6 atoms
run 1 pre no post no
Step Temp E_pair E_mol TotEng Press 
     149            0   -495.69382            0   -495.69382   -285.08773 
     150            0   -494.52052            0   -494.52052    -251.2555 
Loop time of 0.00255394 on 1 procs for 1 steps with 6 atoms
run 1 pre no post no
Step Temp E_pair E_mol TotEng Press 
     150            0   -494.52052            0   -494.52052    -251.2555 
     151            0   -493.27318            0   -493.27318   -182.04453 
Loop time of 0.00274301 on 1 procs for 1 steps with 6 atoms
run 1 pre no post no
Step Temp E_pair E_mol TotEng Press 
     151            0   -493.27318            0   -493.27318   -182.04453 
     152            0   -496.23536            0   -496.23536   -289.62383 
Loop time of 0.0023818 on 1 procs for 1 steps with 6 atoms
run 1 pre no post no
Step Temp E_pair E_mol TotEng Press 
     152            0   -496.23536            0   -496.23536   -289.62383 
     153            0   -495.31981            0   -495.31981   -258.18424 
Loop time of 0.0029459 on 1 procs for 1 steps with 6 atoms
run 1 pre no post no
Step Temp E_pair E_mol TotEng Press 
     153            0   -495.31981            0   -495.31981   -258.18424 
     154            0   -495.20856            0   -495.20856    -197.5052 
Loop time of 0.0027411 on 1 procs for 1 steps with 6 atoms
run 1 pre no post no
Step Temp E_pair E_mol TotEng Press 
     154            0   -495.20856            0   -495.20856    -197.5052 
     155            0   -497.13171            0   -497.13171   -296.70785 
Loop time of 0.00236011 on 1 procs for 1 steps with 6 atoms
run 1 pre no post no
Step Temp E_pair E_mol TotEng Press 
     155            0   -497.13171            0   -497.13171   -296.70785 
     156            0    -496.6636            0    -496.6636   -269.42181 
Loop time of 0.00255299 on 1 procs for 1 steps with 6 atoms
run 1 pre no post no
Step Temp E_pair E_mol TotEng Press 
     156            0    -496.6636            0    -496.6636   -269.42181 
     157            0   -494.74784            0   -494.74784   -190.90456 
Loop time of 0.00314999 on 1 procs for 1 steps with 6 atoms
run 1 pre no post no
Step Temp E_pair E_mol TotEng Press 
     157            0   -494.74784            0   -494.74784   -190.90456 
     158            0   -495.80341            0   -495.80341   -198.01114 
Loop time of 0.00274396 on 1 procs for 1 steps with 6 atoms
run 1 pre no post no
Step Temp E_pair E_mol TotEng Press 
     158            0   -495.80341            0   -495.80341   -198.01114 
     159            0   -497.40627            0   -497.40627   -298.78871 
Loop time of 0.00239706 on 1 procs for 1 steps with 6 atoms
run 1 pre no post no
Step Temp E_pair E_mol TotEng Press 
     159            0   -497.40627            0   -497.40627   -298.78871 
     160            0   -497.10461            0   -497.10461     -273.002 
Loop time of 0.00256085 on 1 procs for 1 steps with 6 atoms
run 1 pre no post no
Step Temp E_pair E_mol TotEng Press 
     160            0   -497.10461            0   -497.10461     -273.002 
     161            0   -491.09181            0   -491.09181   -163.02594 
Loop time of 0.00277209 on 1 procs for 1 steps with 6 atoms
run 1 pre no post no
Step Temp E_pair E_mol TotEng Press 
     161            0   -491.09181            0   -491.09181   -163.02594 
     162            0   -486.59693            0   -486.59693   -158.57633 
Loop time of 0.00260305 on 1 procs for 1 steps with 6 atoms
run 1 pre no post no
Step Temp E_pair E_mol TotEng Press 
     162            0   -486.59693            0   -486.59693   -158.57633 
     163            0    -493.8507            0    -493.8507   -259.46619 
Loop time of 0.00240302 on 1 procs for 1 steps with 6 atoms
run 1 pre no post no
Step Temp E_pair E_mol TotEng Press 
     163            0    -493.8507            0    -493.8507   -259.46619 
     164            0   -491.00613            0   -491.00613   -204.06439 
Loop time of 0.0023551 on 1 procs for 1 steps with 6 atoms
run 1 pre no post no
Step Temp E_pair E_mol TotEng Press 
     164            0   -491.00613            0   -491.00613   -204.06439 
     165            0   -486.91706            0   -486.91706   -159.96964 
Loop time of 0.00582099 on 1 procs for 1 steps with 6 atoms
run 1 pre no post no
Step Temp E_pair E_mol TotEng Press 
     165            0   -486.91706            0   -486.91706   -159.96964 
     166            0   -494.07448            0   -494.07448   -260.79008 
Loop time of 0.00494313 on 1 procs for 1 steps with 6 atoms
run 1 pre no post no
Step Temp E_pair E_mol TotEng Press 
     166            0   -494.07448            0   -494.07448   -260.79008 
     167            0   -491.28298            0   -491.28298    -205.4372 
Loop time of 0.00492692 on 1 procs for 1 steps with 6 atoms
run 1 pre no post no
Step Temp E_pair E_mol TotEng Press 
     167            0   -491.28298            0   -491.28298    -205.4372 
     168            0   -487.42834            0   -487.42834   -163.65396 
Loop time of 0.00527096 on 1 procs for 1 steps with 6 atoms
run 1 pre no post no
Step Temp E_pair E_mol TotEng Press 
     168            0   -487.42834            0   -487.42834   -163.65396 
     169            0   -494.38779            0   -494.38779   -262.98348 
Loop time of 0.00497317 on 1 procs for 1 steps with 6 atoms
run 1 pre no post no
Step Temp E_pair E_mol TotEng Press 
     169            0   -494.38779            0   -494.38779   -262.98348 
     170            0   -491.69574            0   -491.69574   -208.37664 
Loop time of 0.00493717 on 1 procs for 1 steps with 6 atoms
run 1 pre no post no
Step Temp E_pair E_mol TotEng Press 
     170            0   -491.69574            0   -491.69574   -208.37664 
     171            0    -487.3538            0    -487.3538   -163.13849 
Loop time of 0.00545692 on 1 procs for 1 steps with 6 atoms
run 1 pre no post no
Step Temp E_pair E_mol TotEng Press 
     171            0    -487.3538            0    -487.3538   -163.13849 
     172            0   -494.34254            0   -494.34254   -262.73316 
Loop time of 0.00485086 on 1 procs for 1 steps with 6 atoms
run 1 pre no post no
Step Temp E_pair E_mol TotEng Press 
     172            0   -494.34254            0   -494.34254   -262.73316 
     173            0   -491.63615            0   -491.63615   -208.00522 
Loop time of 0.00501704 on 1 procs for 1 steps with 6 atoms
run 1 pre no post no
Step Temp E_pair E_mol TotEng Press 
     173            0   -491.63615            0   -491.63615   -208.00522 
     174            0   -487.59778            0   -487.59778   -165.88955 
Loop time of 0.00542307 on 1 procs for 1 steps with 6 atoms
run 1 pre no post no
Step Temp E_pair E_mol TotEng Press 
     174            0   -487.59778            0   -487.59778   -165.88955 
     175            0   -494.45545            0   -494.45545   -263.73646 
Loop time of 0.00472808 on 1 procs for 1 steps with 6 atoms
run 1 pre no post no
Step Temp E_pair E_mol TotEng Press 
     175            0   -494.45545            0   -494.45545   -263.73646 
     176            0    -491.8081            0    -491.8081    -209.8463 
Loop time of 0.00470805 on 1 procs for 1 steps with 6 atoms
run 1 pre no post no
Step Temp E_pair E_mol TotEng Press 
     176            0    -491.8081            0    -491.8081    -209.8463 
     177            0   -489.42284            0   -489.42284   -185.10975 
Loop time of 0.00582004 on 1 procs for 1 steps with 6 atoms
run 1 pre no post no
Step Temp E_pair E_mol TotEng Press 
     177            0   -489.42284            0   -489.42284   -185.10975 
     178            0   -495.02746            0   -495.02746   -271.33592 
Loop time of 0.00483894 on 1 procs for 1 steps with 6 atoms
run 1 pre no post no
Step Temp E_pair E_mol TotEng Press 
     178            0   -495.02746            0   -495.02746   -271.33592 
     179            0   -492.92132            0   -492.92132   -228.99836 
Loop time of 0.00487995 on 1 procs for 1 steps with 6 atoms
run 1 pre no post no
Step Temp E_pair E_mol TotEng Press 
     179            0   -492.92132            0   -492.92132   -228.99836 
     180            0   -486.53617            0   -486.53617   -157.38378 
Loop time of 0.00534296 on 1 procs for 1 steps with 6 atoms
run 1 pre no post no
Step Temp E_pair E_mol TotEng Press 
     180            0   -486.53617            0   -486.53617   -157.38378 
     181            0   -493.83389            0   -493.83389    -259.0448 
Loop time of 0.00510216 on 1 procs for 1 steps with 6 atoms
run 1 pre no post no
Step Temp E_pair E_mol TotEng Press 
     181            0   -493.83389            0   -493.83389    -259.0448 
     182            0   -490.97015            0   -490.97015   -203.26032 
Loop time of 0.00492215 on 1 procs for 1 steps with 6 atoms
run 1 pre no post no
Step Temp E_pair E_mol TotEng Press 
     182            0   -490.97015            0   -490.97015   -203.26032 
     183            0   -493.96025            0   -493.96025   -259.81279 
Loop time of 0.00496006 on 1 procs for 1 steps with 6 atoms
run 1 pre no post no
Step Temp E_pair E_mol TotEng Press 
     183            0   -493.96025            0   -493.96025   -259.81279 
     184            0    -491.1137            0    -491.1137   -203.72208 
Loop time of 0.00496697 on 1 procs for 1 steps with 6 atoms
run 1 pre no post no
Step Temp E_pair E_mol TotEng Press 
     184            0    -491.1137            0    -491.1137   -203.72208 
     185            0   -487.10392            0   -487.10392   -160.28795 
Loop time of 0.00542998 on 1 procs for 1 steps with 6 atoms
run 1 pre no post no
Step Temp E_pair E_mol TotEng Press 
     185            0   -487.10392            0   -487.10392   -160.28795 
     186            0   -494.22434            0   -494.22434   -261.67097 
Loop time of 0.00496292 on 1 procs for 1 steps with 6 atoms
run 1 pre no post no
Step Temp E_pair E_mol TotEng Press 
     186            0   -494.22434            0   -494.22434   -261.67097 
     187            0   -491.45818            0   -491.45818   -206.11059 
Loop time of 0.00494885 on 1 procs for 1 steps with 6 atoms
run 1 pre no post no
Step Temp E_pair E_mol TotEng Press 
     187            0   -491.45818            0   -491.45818   -206.11059 
     188            0   -486.96671            0   -486.96671   -159.37247 
Loop time of 0.00533986 on 1 procs for 1 steps with 6 atoms
run 1 pre no post no
Step Temp E_pair E_mol TotEng Press 
     188            0   -486.96671            0   -486.96671   -159.37247 
     189            0   -494.14727            0   -494.14727   -261.26851 
Loop time of 0.00483513 on 1 procs for 1 steps with 6 atoms
run 1 pre no post no
Step Temp E_pair E_mol TotEng Press 
     189            0   -494.14727            0   -494.14727   -261.26851 
     190            0   -491.35226            0   -491.35226   -205.47949 
Loop time of 0.00494409 on 1 procs for 1 steps with 6 atoms
run 1 pre no post no
Step Temp E_pair E_mol TotEng Press 
     190            0   -491.35226            0   -491.35226   -205.47949 
     191            0   -487.33076            0   -487.33076   -162.92127 
Loop time of 0.00536418 on 1 procs for 1 steps with 6 atoms
run 1 pre no post no
Step Temp E_pair E_mol TotEng Press 
     191            0   -487.33076            0   -487.33076   -162.92127 
     192            0   -494.32866            0   -494.32866   -262.63953 
Loop time of 0.00489593 on 1 procs for 1 steps with 6 atoms
run 1 pre no post no
Step Temp E_pair E_mol TotEng Press 
     192            0   -494.32866            0   -494.32866   -262.63953 
     193            0   -491.61765            0   -491.61765   -207.88263 
Loop time of 0.00481105 on 1 procs for 1 steps with 6 atoms
run 1 pre no post no
Step Temp E_pair E_mol TotEng Press 
     193            0   -491.61765            0   -491.61765   -207.88263 
     194            0   -489.78898            0   -489.78898   -189.20512 
Loop time of 0.00560594 on 1 procs for 1 steps with 6 atoms
run 1 pre no post no
Step Temp E_pair E_mol TotEng Press 
     194            0   -489.78898            0   -489.78898   -189.20512 
     195            0   -495.17076            0   -495.17076    -272.3349 
Loop time of 0.00497723 on 1 procs for 1 steps with 6 atoms
run 1 pre no post no
Step Temp E_pair E_mol TotEng Press 
     195            0   -495.17076            0   -495.17076    -272.3349 
     196            0   -493.15274            0   -493.15274   -231.08063 
Loop time of 0.00491405 on 1 procs for 1 steps with 6 atoms
run 1 pre no post no
Step Temp E_pair E_mol TotEng Press 
     196            0   -493.15274            0   -493.15274   -231.08063 
     197            0   -486.41022            0   -486.41022    -157.0759 
Loop time of 0.0052731 on 1 procs for 1 steps with 6 atoms
run 1 pre no post no
Step Temp E_pair E_mol TotEng Press 
     197            0   -486.41022            0   -486.41022    -157.0759 
     198            0   -493.75609            0   -493.75609   -258.93823 
Loop time of 0.00489497 on 1 procs for 1 steps with 6 atoms
run 1 pre no post no
Step Temp E_pair E_mol TotEng Press 
     198            0   -493.75609            0   -493.75609   -258.93823 
     199            0   -490.86989            0   -490.86989   -203.12905 
Loop time of 0.00500703 on 1 procs for 1 steps with 6 atoms
run 1 pre no post no
Step Temp E_pair E_mol TotEng Press 
     199            0   -490.86989            0   -490.86989   -203.12905 
     200            0   -486.67846            0   -486.67846   -158.21877 
Loop time of 0.00538898 on 1 procs for 1 steps with 6 atoms
run 1 pre no post no
Step Temp E_pair E_mol TotEng Press 
     200            0   -486.67846            0   -486.67846   -158.21877 
     201            0   -493.94319            0   -493.94319   -260.08165 
Loop time of 0.00489306 on 1 procs for 1 steps with 6 atoms
run 1 pre no post no
Step Temp E_pair E_mol TotEng Press 
     201            0   -493.94319            0   -493.94319   -260.08165 
     202            0   -491.10137            0   -491.10137   -204.27329 
Loop time of 0.00489593 on 1 procs for 1 steps with 6 atoms
run 1 pre no post no
Step Temp E_pair E_mol TotEng Press 
     202            0   -491.10137            0   -491.10137   -204.27329 
     203            0   -487.32004            0   -487.32004   -162.97423 
Loop time of 0.00538301 on 1 procs for 1 steps with 6 atoms
run 1 pre no post no
Step Temp E_pair E_mol TotEng Press 
     203            0   -487.32004            0   -487.32004   -162.97423 
     204            0   -494.32646            0   -494.32646   -262.67216 
Loop time of 0.00486183 on 1 procs for 1 steps with 6 atoms
run 1 pre no post no
Step Temp E_pair E_mol TotEng Press 
     204            0   -494.32646            0   -494.32646   -262.67216 
     205            0   -491.61184            0   -491.61184   -207.90113 
Loop time of 0.00489092 on 1 procs for 1 steps with 6 atoms
run 1 pre no post no
Step Temp E_pair E_mol TotEng Press 
     205            0   -491.61184            0   -491.61184   -207.90113 
     206            0   -487.64706            0   -487.64706   -166.37741 
Loop time of 0.00556707 on 1 procs for 1 steps with 6 atoms
run 1 pre no post no
Step Temp E_pair E_mol TotEng Press 
     206            0   -487.64706            0   -487.64706   -166.37741 
     207            0   -494.48743            0   -494.48743   -263.96108 
Loop time of 0.00487614 on 1 procs for 1 steps with 6 atoms
run 1 pre no post no
Step Temp E_pair E_mol TotEng Press 
     207            0   -494.48743            0   -494.48743   -263.96108 
     208            0   -491.84862            0   -491.84862   -210.19711 
Loop time of 0.00483298 on 1 procs for 1 steps with 6 atoms
run 1 pre no post no
Step Temp E_pair E_mol TotEng Press 
     208            0   -491.84862            0   -491.84862   -210.19711 
     209            0   -499.42511            0   -499.42511   -128.26617 
Loop time of 0.00500393 on 1 procs for 1 steps with 6 atoms
run 1 pre no post no
Step Temp E_pair E_mol TotEng Press 
     209            0   -499.42511            0   -499.42511   -128.26617 
     210            0   -498.93911            0   -498.93911   -320.08447 
Loop time of 0.00485587 on 1 procs for 1 steps with 6 atoms
run 1 pre no post no
Step Temp E_pair E_mol TotEng Press 
     210            0   -498.93911            0   -498.93911   -320.08447 
     211            0   -499.96759            0   -499.96759   -293.75798 
Loop time of 0.00524592 on 1 procs for 1 steps with 6 atoms
run 1 pre no post no
Step Temp E_pair E_mol TotEng Press 
     211            0   -499.96759            0   -499.96759   -293.75798 
     212            0   -499.82786            0   -499.82786   -130.42608 
Loop time of 0.00528097 on 1 procs for 1 steps with 6 atoms
run 1 pre no post no
Step Temp E_pair E_mol TotEng Press 
     212            0   -499.82786            0   -499.82786   -130.42608 
     213            0   -498.87453            0   -498.87453   -320.35675 
Loop time of 0.00486994 on 1 procs for 1 steps with 6 atoms
run 1 pre no post no
Step Temp E_pair E_mol TotEng Press 
     213            0   -498.87453            0   -498.87453   -320.35675 
     214            0   -500.04677            0   -500.04677   -295.13339 
Loop time of 0.00534606 on 1 procs for 1 steps with 6 atoms
run 1 pre no post no
Step Temp E_pair E_mol TotEng Press 
     214            0   -500.04677            0   -500.04677   -295.13339 
     215            0   -408.21344            0   -408.21344    961.26495 
Loop time of 0.00577998 on 1 procs for 1 steps with 6 atoms
run 1 pre no post no
Step Temp E_pair E_mol TotEng Press 
     215            0   -408.21344            0   -408.21344    961.26495 
     216            0    -496.1434            0    -496.1434   -311.62719 
Loop time of 0.00512004 on 1 procs for 1 steps with 6 atoms
run 1 pre no post no
Step Temp E_pair E_mol TotEng Press 
     216            0    -496.1434            0    -496.1434   -311.62719 
     217            0   -491.82904            0   -491.82904    114.23094 
Loop time of 0.00589299 on 1 procs for 1 steps with 6 atoms
run 1 pre no post no
Step Temp E_pair E_mol TotEng Press 
     217            0   -491.82904            0   -491.82904    114.23094 
     218            0   -496.93452            0   -496.93452    -253.4295 
Loop time of 0.00549912 on 1 procs for 1 steps with 6 atoms
run 1 pre no post no
Step Temp E_pair E_mol TotEng Press 
     218            0   -496.93452            0   -496.93452    -253.4295 
     219            0   -498.06389            0   -498.06389      -301.74 
Loop time of 0.0049262 on 1 procs for 1 steps with 6 atoms
run 1 pre no post no
Step Temp E_pair E_mol TotEng Press 
     219            0   -498.06389            0   -498.06389      -301.74 
     220            0   -497.85145            0   -497.85145   -285.26722 
Loop time of 0.004915 on 1 procs for 1 steps with 6 atoms
run 1 pre no post no
Step Temp E_pair E_mol TotEng Press 
     220            0   -497.85145            0   -497.85145   -285.26722 
     221            0    -496.1127            0    -496.1127   -246.69029 
Loop time of 0.00551105 on 1 procs for 1 steps with 6 atoms
run 1 pre no post no
Step Temp E_pair E_mol TotEng Press 
     221            0    -496.1127            0    -496.1127   -246.69029 
     222            0   -497.63809            0   -497.63809   -298.49835 
Loop time of 0.00482798 on 1 procs for 1 steps with 6 atoms
run 1 pre no post no
Step Temp E_pair E_mol TotEng Press 
     222            0   -497.63809            0   -497.63809   -298.49835 
     223            0   -497.24479            0   -497.24479   -280.32758 
Loop time of 0.004843 on 1 procs for 1 steps with 6 atoms
run 1 pre no post no
Step Temp E_pair E_mol TotEng Press 
     223            0   -497.24479            0   -497.24479   -280.32758 
     224            0   -500.55855            0   -500.55855   -125.49614 
Loop time of 0.00524378 on 1 procs for 1 steps with 6 atoms
run 1 pre no post no
Step Temp E_pair E_mol TotEng Press 
     224            0   -500.55855            0   -500.55855   -125.49614 
     225            0    -499.3551            0    -499.3551    -323.8862 
Loop time of 0.0048821 on 1 procs for 1 steps with 6 atoms
run 1 pre no post no
Step Temp E_pair E_mol TotEng Press 
     225            0    -499.3551            0    -499.3551    -323.8862 
     226            0   -500.74503            0   -500.74503   -298.92199 
Loop time of 0.00517583 on 1 procs for 1 steps with 6 atoms
run 1 pre no post no
Step Temp E_pair E_mol TotEng Press 
     226            0   -500.74503            0   -500.74503   -298.92199 
     227            0   -500.05244            0   -500.05244   -119.81964 
Loop time of 0.00506687 on 1 procs for 1 steps with 6 atoms
run 1 pre no post no
Step Temp E_pair E_mol TotEng Press 
     227            0   -500.05244            0   -500.05244   -119.81964 
     228            0   -499.05058            0   -499.05058   -321.81519 
Loop time of 0.00496507 on 1 procs for 1 steps with 6 atoms
run 1 pre no post no
Step Temp E_pair E_mol TotEng Press 
     228            0   -499.05058            0   -499.05058   -321.81519 
     229            0   -500.35234            0   -500.35234   -295.86261 
Loop time of 0.00518799 on 1 procs for 1 steps with 6 atoms
run 1 pre no post no
Step Temp E_pair E_mol TotEng Press 
     229            0   -500.35234            0   -500.35234   -295.86261 
     230            0   -494.05772            0   -494.05772   -194.94452 
Loop time of 0.00582194 on 1 procs for 1 steps with 6 atoms
run 1 pre no post no
Step Temp E_pair E_mol TotEng Press 
     230            0   -494.05772            0   -494.05772   -194.94452 
     231            0   -496.51904            0   -496.51904   -291.56337 
Loop time of 0.00482106 on 1 procs for 1 steps with 6 atoms
run 1 pre no post no
Step Temp E_pair E_mol TotEng Press 
     231            0   -496.51904            0   -496.51904   -291.56337 
     232            0   -495.76526            0   -495.76526   -262.19414 
Loop time of 0.00524807 on 1 procs for 1 steps with 6 atoms
run 1 pre no post no
Step Temp E_pair E_mol TotEng Press 
     232            0   -495.76526            0   -495.76526   -262.19414 
     233            0   -492.81381            0   -492.81381     -184.358 
Loop time of 0.00581288 on 1 procs for 1 steps with 6 atoms
run 1 pre no post no
Step Temp E_pair E_mol TotEng Press 
     233            0   -492.81381            0   -492.81381     -184.358 
     234            0   -495.87821            0   -495.87821   -286.69039 
Loop time of 0.00498605 on 1 procs for 1 steps with 6 atoms
run 1 pre no post no
Step Temp E_pair E_mol TotEng Press 
     234            0   -495.87821            0   -495.87821   -286.69039 
     235            0   -494.86101            0   -494.86101   -255.06006 
Loop time of 0.00532198 on 1 procs for 1 steps with 6 atoms
run 1 pre no post no
Step Temp E_pair E_mol TotEng Press 
     235            0   -494.86101            0   -494.86101   -255.06006 
     236            0   -491.77672            0   -491.77672    222.32115 
Loop time of 0.00597191 on 1 procs for 1 steps with 6 atoms
run 1 pre no post no
Step Temp E_pair E_mol TotEng Press 
     236            0   -491.77672            0   -491.77672    222.32115 
     237            0   -497.64361            0   -497.64361   -317.85482 
Loop time of 0.00502992 on 1 procs for 1 steps with 6 atoms
run 1 pre no post no
Step Temp E_pair E_mol TotEng Press 
     237            0   -497.64361            0   -497.64361   -317.85482 
     238            0   -498.51093            0   -498.51093   -253.55433 
Loop time of 0.00598693 on 1 procs for 1 steps with 6 atoms
run 1 pre no post no
Step Temp E_pair E_mol TotEng Press 
     238            0   -498.51093            0   -498.51093   -253.55433 
     239            0   -489.85819            0   -489.85819   -181.44497 
Loop time of 0.00544381 on 1 procs for 1 steps with 6 atoms
run 1 pre no post no
Step Temp E_pair E_mol TotEng Press 
     239            0   -489.85819            0   -489.85819   -181.44497 
     240            0   -495.52858            0   -495.52858   -272.65665 
Loop time of 0.00475788 on 1 procs for 1 steps with 6 atoms
run 1 pre no post no
Step Temp E_pair E_mol TotEng Press 
     240            0   -495.52858            0   -495.52858   -272.65665 
     241            0   -493.42116            0   -493.42116   -228.13176 
Loop time of 0.00498295 on 1 procs for 1 steps with 6 atoms
run 1 pre no post no
Step Temp E_pair E_mol TotEng Press 
     241            0   -493.42116            0   -493.42116   -228.13176 
     242            0    -488.7967            0    -488.7967   -173.46978 
Loop time of 0.00529408 on 1 procs for 1 steps with 6 atoms
run 1 pre no post no
Step Temp E_pair E_mol TotEng Press 
     242            0    -488.7967            0    -488.7967   -173.46978 
     243            0   -494.89053            0   -494.89053   -268.17068 
Loop time of 0.00500488 on 1 procs for 1 steps with 6 atoms
run 1 pre no post no
Step Temp E_pair E_mol TotEng Press 
     243            0   -494.89053            0   -494.89053   -268.17068 
     244            0   -492.57387            0   -492.57387   -221.98887 
Loop time of 0.00489998 on 1 procs for 1 steps with 6 atoms
run 1 pre no post no
Step Temp E_pair E_mol TotEng Press 
     244            0   -492.57387            0   -492.57387   -221.98887 
     245            0   -496.94939            0   -496.94939   -295.27378 
Loop time of 0.004915 on 1 procs for 1 steps with 6 atoms
run 1 pre no post no
Step Temp E_pair E_mol TotEng Press 
     245            0   -496.94939            0   -496.94939   -295.27378 
     246            0   -496.37797            0   -496.37797   -266.64374 
Loop time of 0.00529218 on 1 procs for 1 steps with 6 atoms
run 1 pre no post no
Step Temp E_pair E_mol TotEng Press 
     246            0   -496.37797            0   -496.37797   -266.64374 
     247            0   -494.81253            0   -494.81253   -193.24326 
Loop time of 0.00570703 on 1 procs for 1 steps with 6 atoms
run 1 pre no post no
Step Temp E_pair E_mol TotEng Press 
     247            0   -494.81253            0   -494.81253   -193.24326 
     248            0   -496.86896            0   -496.86896   -294.39896 
Loop time of 0.00496697 on 1 procs for 1 steps with 6 atoms
run 1 pre no post no
Step Temp E_pair E_mol TotEng Press 
     248            0   -496.86896            0   -496.86896   -294.39896 
     249            0   -496.33469            0   -496.33469   -266.78185 
Loop time of 0.00504279 on 1 procs for 1 steps with 6 atoms
run 1 pre no post no
Step Temp E_pair E_mol TotEng Press 
     249            0   -496.33469            0   -496.33469   -266.78185 
     250            0   -492.91716            0   -492.91716   -178.95532 
Loop time of 0.00575185 on 1 procs for 1 steps with 6 atoms
run 1 pre no post no
Step Temp E_pair E_mol TotEng Press 
     250            0   -492.91716            0   -492.91716   -178.95532 
     251            0   -495.97848            0   -495.97848   -287.39976 
Loop time of 0.00490808 on 1 procs for 1 steps with 6 atoms
run 1 pre no post no
Step Temp E_pair E_mol TotEng Press 
     251            0   -495.97848            0   -495.97848   -287.39976 
     252            0   -495.00428            0   -495.00428   -255.75779 
Loop time of 0.00525498 on 1 procs for 1 steps with 6 atoms
run 1 pre no post no
Step Temp E_pair E_mol TotEng Press 
     252            0   -495.00428            0   -495.00428   -255.75779 
     253            0   -495.04792            0   -495.04792   -281.04455 
Loop time of 0.00497413 on 1 procs for 1 steps with 6 atoms
run 1 pre no post no
Step Temp E_pair E_mol TotEng Press 
     253            0   -495.04792            0   -495.04792   -281.04455 
     254            0   -493.66335            0   -493.66335   -250.63197 
Loop time of 0.00510693 on 1 procs for 1 steps with 6 atoms
run 1 pre no post no
Step Temp E_pair E_mol TotEng Press 
     254            0   -493.66335            0   -493.66335   -250.63197 
     255            0   -486.95998            0   -486.95998   -160.37329 
Loop time of 0.0054791 on 1 procs for 1 steps with 6 atoms
run 1 pre no post no
Step Temp E_pair E_mol TotEng Press 
     255            0   -486.95998            0   -486.95998   -160.37329 
     256            0   -494.09677            0   -494.09677   -260.93615 
Loop time of 0.004843 on 1 procs for 1 steps with 6 atoms
run 1 pre no post no
Step Temp E_pair E_mol TotEng Press 
     256            0   -494.09677            0   -494.09677   -260.93615 
     257            0   -491.31485            0   -491.31485   -205.69531 
Loop time of 0.00493693 on 1 procs for 1 steps with 6 atoms
run 1 pre no post no
Step Temp E_pair E_mol TotEng Press 
     257            0   -491.31485            0   -491.31485   -205.69531 
     258            0     -486.432            0     -486.432    -156.5819 
Loop time of 0.00531101 on 1 procs for 1 steps with 6 atoms
run 1 pre no post no
Step Temp E_pair E_mol TotEng Press 
     258            0     -486.432            0     -486.432    -156.5819 
     259            0   -493.77592            0   -493.77592   -258.73641 
Loop time of 0.00496507 on 1 procs for 1 steps with 6 atoms
run 1 pre no post no
Step Temp E_pair E_mol TotEng Press 
     259            0   -493.77592            0   -493.77592   -258.73641 
     260            0   -490.89077            0   -490.89077   -202.71507 
Loop time of 0.00493288 on 1 procs for 1 steps with 6 atoms
run 1 pre no post no
Step Temp E_pair E_mol TotEng Press 
     260            0   -490.89077            0   -490.89077   -202.71507 
     261            0    -500.5831            0    -500.5831   -42.008783 
Loop time of 0.00527501 on 1 procs for 1 steps with 6 atoms
run 1 pre no post no
Step Temp E_pair E_mol TotEng Press 
     261            0    -500.5831            0    -500.5831   -42.008783 
     262            0   -499.50896            0   -499.50896    -327.8784 
Loop time of 0.00497699 on 1 procs for 1 steps with 6 atoms
run 1 pre no post no
Step Temp E_pair E_mol TotEng Press 
     262            0   -499.50896            0   -499.50896    -327.8784 
     263            0   -486.83368            0   -486.83368   -158.44593 
Loop time of 0.00543594 on 1 procs for 1 steps with 6 atoms
run 1 pre no post no
Step Temp E_pair E_mol TotEng Press 
     263            0   -486.83368            0   -486.83368   -158.44593 
     264            0   -494.05232            0   -494.05232   -260.29309 
Loop time of 0.00495887 on 1 procs for 1 steps with 6 atoms
run 1 pre no post no
Step Temp E_pair E_mol TotEng Press 
     264            0   -494.05232            0   -494.05232   -260.29309 
     265            0   -491.23463            0   -491.23463   -204.45242 
Loop time of 0.00500107 on 1 procs for 1 steps with 6 atoms
run 1 pre no post no
Step Temp E_pair E_mol TotEng Press 
     265            0   -491.23463            0   -491.23463   -204.45242 
     266            0   -486.42982            0   -486.42982   -155.68219 
Loop time of 0.00547409 on 1 procs for 1 steps with 6 atoms
run 1 pre no post no
Step Temp E_pair E_mol TotEng Press 
     266            0   -486.42982            0   -486.42982   -155.68219 
     267            0   -493.79684            0   -493.79684   -258.45919 
Loop time of 0.0047791 on 1 procs for 1 steps with 6 atoms
run 1 pre no post no
Step Temp E_pair E_mol TotEng Press 
     267            0   -493.79684            0   -493.79684   -258.45919 
     268            0   -490.90285            0   -490.90285   -202.12357 
Loop time of 0.00498199 on 1 procs for 1 steps with 6 atoms
run 1 pre no post no
Step Temp E_pair E_mol TotEng Press 
     268            0   -490.90285            0   -490.90285   -202.12357 
     269            0   -487.24613            0   -487.24613   -162.24464 
Loop time of 0.00547504 on 1 procs for 1 steps with 6 atoms
run 1 pre no post no
Step Temp E_pair E_mol TotEng Press 
     269            0   -487.24613            0   -487.24613   -162.24464 
     270            0   -494.28178            0   -494.28178   -262.36153 
Loop time of 0.00500393 on 1 procs for 1 steps with 6 atoms
run 1 pre no post no
Step Temp E_pair E_mol TotEng Press 
     270            0   -494.28178            0   -494.28178   -262.36153 
     271            0   -491.55311            0   -491.55311   -207.39596 
Loop time of 0.005059 on 1 procs for 1 steps with 6 atoms
run 1 pre no post no
Step Temp E_pair E_mol TotEng Press 
     271            0   -491.55311            0   -491.55311   -207.39596 
     272            0   -487.06259            0   -487.06259   -161.17872 
Loop time of 0.00534415 on 1 procs for 1 steps with 6 atoms
run 1 pre no post no
Step Temp E_pair E_mol TotEng Press 
     272            0   -487.06259            0   -487.06259   -161.17872 
     273            0   -494.16314            0   -494.16314   -261.31813 
Loop time of 0.00493503 on 1 procs for 1 steps with 6 atoms
run 1 pre no post no
Step Temp E_pair E_mol TotEng Press 
     273            0   -494.16314            0   -494.16314   -261.31813 
     274            0    -491.3991            0    -491.3991   -206.27593 
Loop time of 0.00504994 on 1 procs for 1 steps with 6 atoms
run 1 pre no post no
Step Temp E_pair E_mol TotEng Press 
     274            0    -491.3991            0    -491.3991   -206.27593 
     275            0   -486.42234            0   -486.42234   -156.43721 
Loop time of 0.00521278 on 1 procs for 1 steps with 6 atoms
run 1 pre no post no
Step Temp E_pair E_mol TotEng Press 
     275            0   -486.42234            0   -486.42234   -156.43721 
     276            0   -493.78057            0   -493.78057   -258.73825 
Loop time of 0.00491691 on 1 procs for 1 steps with 6 atoms
run 1 pre no post no
Step Temp E_pair E_mol TotEng Press 
     276            0   -493.78057            0   -493.78057   -258.73825 
     277            0   -489.49584            0   -489.49584   -186.55821 
Loop time of 0.0058372 on 1 procs for 1 steps with 6 atoms
run 1 pre no post no
Step Temp E_pair E_mol TotEng Press 
     277            0   -489.49584            0   -489.49584   -186.55821 
     278            0   -495.01214            0   -495.01214   -271.50865 
Loop time of 0.00473714 on 1 procs for 1 steps with 6 atoms
run 1 pre no post no
Step Temp E_pair E_mol TotEng Press 
     278            0   -495.01214            0   -495.01214   -271.50865 
     279            0   -492.93623            0   -492.93623   -229.60851 
Loop time of 0.00495601 on 1 procs for 1 steps with 6 atoms
run 1 pre no post no
Step Temp E_pair E_mol TotEng Press 
     279            0   -492.93623            0   -492.93623   -229.60851 
     280            0   -500.20738            0   -500.20738    -121.7348 
Loop time of 0.0053339 on 1 procs for 1 steps with 6 atoms
run 1 pre no post no
Step Temp E_pair E_mol TotEng Press 
     280            0   -500.20738            0   -500.20738    -121.7348 
     281            0   -499.11922            0   -499.11922   -322.29375 
Loop time of 0.00488186 on 1 procs for 1 steps with 6 atoms
run 1 pre no post no
Step Temp E_pair E_mol TotEng Press 
     281            0   -499.11922            0   -499.11922   -322.29375 
     282            0   -500.45408            0   -500.45408   -296.80546 
Loop time of 0.00531602 on 1 procs for 1 steps with 6 atoms
run 1 pre no post no
Step Temp E_pair E_mol TotEng Press 
     282            0   -500.45408            0   -500.45408   -296.80546 
     283            0   -499.23645            0   -499.23645    -299.5269 
Loop time of 0.00533986 on 1 procs for 1 steps with 6 atoms
run 1 pre no post no
Step Temp E_pair E_mol TotEng Press 
     283            0   -499.23645            0   -499.23645    -299.5269 
     284            0   -499.86154            0   -499.86154   -191.67365 
Loop time of 0.00566888 on 1 procs for 1 steps with 6 atoms
run 1 pre no post no
Step Temp E_pair E_mol TotEng Press 
     284            0   -499.86154            0   -499.86154   -191.67365 
     285            0   -498.40849            0   -498.40849   -318.48554 
Loop time of 0.00497603 on 1 procs for 1 steps with 6 atoms
run 1 pre no post no
Step Temp E_pair E_mol TotEng Press 
     285            0   -498.40849            0   -498.40849   -318.48554 
     286            0   -499.52751            0   -499.52751   -302.76257 
Loop time of 0.00528216 on 1 procs for 1 steps with 6 atoms
run 1 pre no post no
Step Temp E_pair E_mol TotEng Press 
     286            0   -499.52751            0   -499.52751   -302.76257 
     287            0    -474.5044            0    -474.5044    1362.9546 
Loop time of 0.00590706 on 1 procs for 1 steps with 6 atoms
run 1 pre no post no
Step Temp E_pair E_mol TotEng Press 
     287            0    -474.5044            0    -474.5044    1362.9546 
     288            0   -496.59199            0   -496.59199   -308.16138 
Loop time of 0.00497818 on 1 procs for 1 steps with 6 atoms
run 1 pre no post no
Step Temp E_pair E_mol TotEng Press 
     288            0   -496.59199            0   -496.59199   -308.16138 
     289            0   -495.53188            0   -495.53188    -172.1692 
Loop time of 0.00581002 on 1 procs for 1 steps with 6 atoms
run 1 pre no post no
Step Temp E_pair E_mol TotEng Press 
     289            0   -495.53188            0   -495.53188    -172.1692 
     290            0   -495.85281            0   -495.85281   -42.160938 
Loop time of 0.00610018 on 1 procs for 1 steps with 6 atoms
run 1 pre no post no
Step Temp E_pair E_mol TotEng Press 
     290            0   -495.85281            0   -495.85281   -42.160938 
     291            0   -496.93997            0   -496.93997    -311.9823 
Loop time of 0.00497198 on 1 procs for 1 steps with 6 atoms
run 1 pre no post no
Step Temp E_pair E_mol TotEng Press 
     291            0   -496.93997            0   -496.93997    -311.9823 
     292            0   -497.56951            0   -497.56951   -295.62492 
Loop time of 0.00618792 on 1 procs for 1 steps with 6 atoms
run 1 pre no post no
Step Temp E_pair E_mol TotEng Press 
     292            0   -497.56951            0   -497.56951   -295.62492 
     293            0   -485.34197            0   -485.34197     475.3703 
Loop time of 0.00637698 on 1 procs for 1 steps with 6 atoms
run 1 pre no post no
Step Temp E_pair E_mol TotEng Press 
     293            0   -485.34197            0   -485.34197     475.3703 
     294            0   -496.82144            0   -496.82144   -317.16317 
Loop time of 0.00495601 on 1 procs for 1 steps with 6 atoms
run 1 pre no post no
Step Temp E_pair E_mol TotEng Press 
     294            0   -496.82144            0   -496.82144   -317.16317 
     295            0    -496.5809            0    -496.5809   -184.43214 
Loop time of 0.00585699 on 1 procs for 1 steps with 6 atoms
run 1 pre no post no
Step Temp E_pair E_mol TotEng Press 
     295            0    -496.5809            0    -496.5809   -184.43214 
[...]
Loop time of 0.00643897 on 1 procs for 1 steps with 6 atoms
run 1 pre no post no
Step Temp E_pair E_mol TotEng Press 
    1852            0   -461.04795            0   -461.04795    1574.1012 
    1853            0    -485.4184            0    -485.4184   -45.134092 
Loop time of 0.00579596 on 1 procs for 1 steps with 6 atoms
run 1 pre no post no
Step Temp E_pair E_mol TotEng Press 
    1853            0    -485.4184            0    -485.4184   -45.134092 
    1854            0    -488.0632            0    -488.0632    684.58039 
Loop time of 0.00579 on 1 procs for 1 steps with 6 atoms
run 1 pre no post no
Step Temp E_pair E_mol TotEng Press 
    1854            0    -488.0632            0    -488.0632    684.58039 
    1855            0   -484.59779            0   -484.59779    544.74866 
Loop time of 0.00628901 on 1 procs for 1 steps with 6 atoms
run 1 pre no post no
Step Temp E_pair E_mol TotEng Press 
    1855            0   -484.59779            0   -484.59779    544.74866 
    1856            0   -451.04197            0   -451.04197    1969.7804 
Loop time of 0.00679016 on 1 procs for 1 steps with 6 atoms
run 1 pre no post no
Step Temp E_pair E_mol TotEng Press 
    1856            0   -451.04197            0   -451.04197    1969.7804 
    1857            0   -496.92736            0   -496.92736   -90.666833 
Loop time of 0.00556421 on 1 procs for 1 steps with 6 atoms
run 1 pre no post no
Step Temp E_pair E_mol TotEng Press 
    1857            0   -496.92736            0   -496.92736   -90.666833 
    1858            0   -485.52995            0   -485.52995   -93.894639 
Loop time of 0.00547409 on 1 procs for 1 steps with 6 atoms
run 1 pre no post no
Step Temp E_pair E_mol TotEng Press 
    1858            0   -485.52995            0   -485.52995   -93.894639 
    1859            0   -497.03747            0   -497.03747    207.48021 
Loop time of 0.00595117 on 1 procs for 1 steps with 6 atoms
run 1 pre no post no
Step Temp E_pair E_mol TotEng Press 
    1859            0   -497.03747            0   -497.03747    207.48021 
    1860            0   -458.33537            0   -458.33537    2062.9631 
Loop time of 0.006706 on 1 procs for 1 steps with 6 atoms
run 1 pre no post no
Step Temp E_pair E_mol TotEng Press 
    1860            0   -458.33537            0   -458.33537    2062.9631 
    1861            0   -480.28718            0   -480.28718    884.29586 
Loop time of 0.00583696 on 1 procs for 1 steps with 6 atoms
run 1 pre no post no
Step Temp E_pair E_mol TotEng Press 
    1861            0   -480.28718            0   -480.28718    884.29586 
    1862            0    -483.4643            0    -483.4643    30.960655 
Loop time of 0.00594401 on 1 procs for 1 steps with 6 atoms
run 1 pre no post no
Step Temp E_pair E_mol TotEng Press 
    1862            0    -483.4643            0    -483.4643    30.960655 
    1863            0   -454.47431            0   -454.47431    2316.4711 
Loop time of 0.00683403 on 1 procs for 1 steps with 6 atoms
run 1 pre no post no
Step Temp E_pair E_mol TotEng Press 
    1863            0   -454.47431            0   -454.47431    2316.4711 
    1864            0    -493.0549            0    -493.0549   -142.96908 
Loop time of 0.00587702 on 1 procs for 1 steps with 6 atoms
run 1 pre no post no
Step Temp E_pair E_mol TotEng Press 
    1864            0    -493.0549            0    -493.0549   -142.96908 
    1865            0    -491.5159            0    -491.5159    588.86695 
Loop time of 0.00571084 on 1 procs for 1 steps with 6 atoms
run 1 pre no post no
Step Temp E_pair E_mol TotEng Press 
    1865            0    -491.5159            0    -491.5159    588.86695 
    1866            0   -480.59991            0   -480.59991    642.73552 
Loop time of 0.00628209 on 1 procs for 1 steps with 6 atoms
run 1 pre no post no
Step Temp E_pair E_mol TotEng Press 
    1866            0   -480.59991            0   -480.59991    642.73552 
    1867            0   -483.61128            0   -483.61128   -30.585562 
Loop time of 0.00554085 on 1 procs for 1 steps with 6 atoms
run 1 pre no post no
Step Temp E_pair E_mol TotEng Press 
    1867            0   -483.61128            0   -483.61128   -30.585562 
    1868            0   -477.18069            0   -477.18069     322.0574 
Loop time of 0.00583291 on 1 procs for 1 steps with 6 atoms
run 1 pre no post no
Step Temp E_pair E_mol TotEng Press 
    1868            0   -477.18069            0   -477.18069     322.0574 
    1869            0   -492.34883            0   -492.34883   -204.49733 
Loop time of 0.00562 on 1 procs for 1 steps with 6 atoms
run 1 pre no post no
Step Temp E_pair E_mol TotEng Press 
    1869            0   -492.34883            0   -492.34883   -204.49733 
    1870            0   -493.99825            0   -493.99825    112.20896 
Loop time of 0.00720096 on 1 procs for 1 steps with 6 atoms
run 1 pre no post no
Step Temp E_pair E_mol TotEng Press 
    1870            0   -493.99825            0   -493.99825    112.20896 
    1871            0   -394.19908            0   -394.19908    1527.2306 
Loop time of 0.00677204 on 1 procs for 1 steps with 6 atoms
run 1 pre no post no
Step Temp E_pair E_mol TotEng Press 
    1871            0   -394.19908            0   -394.19908    1527.2306 
    1872            0   -493.22135            0   -493.22135    103.18295 
Loop time of 0.00750804 on 1 procs for 1 steps with 6 atoms
run 1 pre no post no
Step Temp E_pair E_mol TotEng Press 
    1872            0   -493.22135            0   -493.22135    103.18295 
    1873            0   -394.98909            0   -394.98909    2240.3325 
Loop time of 0.00636792 on 1 procs for 1 steps with 6 atoms
run 1 pre no post no
Step Temp E_pair E_mol TotEng Press 
    1873            0   -394.98909            0   -394.98909    2240.3325 
    1874            0   -470.69515            0   -470.69515     1631.969 
Loop time of 0.00703716 on 1 procs for 1 steps with 6 atoms
run 1 pre no post no
Step Temp E_pair E_mol TotEng Press 
    1874            0   -470.69515            0   -470.69515     1631.969 
    1875            0   -476.18674            0   -476.18674    313.92307 
Loop time of 0.00643611 on 1 procs for 1 steps with 6 atoms
run 1 pre no post no
Step Temp E_pair E_mol TotEng Press 
    1875            0   -476.18674            0   -476.18674    313.92307 
    1876            0    -479.9022            0    -479.9022    890.37624 
Loop time of 0.00658011 on 1 procs for 1 steps with 6 atoms
run 1 pre no post no
Step Temp E_pair E_mol TotEng Press 
    1876            0    -479.9022            0    -479.9022    890.37624 
    1877            0   -494.36289            0   -494.36289   -181.12416 
Loop time of 0.00564599 on 1 procs for 1 steps with 6 atoms
run 1 pre no post no
Step Temp E_pair E_mol TotEng Press 
    1877            0   -494.36289            0   -494.36289   -181.12416 
    1878            0   -467.34705            0   -467.34705    1806.2058 
Loop time of 0.00720787 on 1 procs for 1 steps with 6 atoms
run 1 pre no post no
Step Temp E_pair E_mol TotEng Press 
    1878            0   -467.34705            0   -467.34705    1806.2058 
    1879            0   -472.85307            0   -472.85307    1549.9309 
Loop time of 0.00700092 on 1 procs for 1 steps with 6 atoms
run 1 pre no post no
Step Temp E_pair E_mol TotEng Press 
    1879            0   -472.85307            0   -472.85307    1549.9309 
    1880            0   -489.54072            0   -489.54072   -180.15399 
Loop time of 0.00550795 on 1 procs for 1 steps with 6 atoms
run 1 pre no post no
Step Temp E_pair E_mol TotEng Press 
    1880            0   -489.54072            0   -489.54072   -180.15399 
    1881            0   -493.96067            0   -493.96067   -116.10763 
Loop time of 0.00576115 on 1 procs for 1 steps with 6 atoms
run 1 pre no post no
Step Temp E_pair E_mol TotEng Press 
    1881            0   -493.96067            0   -493.96067   -116.10763 
    1882            0   -489.45347            0   -489.45347    10.529488 
Loop time of 0.00590897 on 1 procs for 1 steps with 6 atoms
run 1 pre no post no
Step Temp E_pair E_mol TotEng Press 
    1882            0   -489.45347            0   -489.45347    10.529488 
    1883            0    -353.5339            0    -353.5339     1753.943 
Loop time of 0.00716686 on 1 procs for 1 steps with 6 atoms
run 1 pre no post no
Step Temp E_pair E_mol TotEng Press 
    1883            0    -353.5339            0    -353.5339     1753.943 
    1884            0   -458.22951            0   -458.22951    2222.7065 
Loop time of 0.00632596 on 1 procs for 1 steps with 6 atoms
run 1 pre no post no
Step Temp E_pair E_mol TotEng Press 
    1884            0   -458.22951            0   -458.22951    2222.7065 
    1885            0   -483.53746            0   -483.53746    522.65125 
Loop time of 0.00725913 on 1 procs for 1 steps with 6 atoms
run 1 pre no post no
Step Temp E_pair E_mol TotEng Press 
    1885            0   -483.53746            0   -483.53746    522.65125 
    1886            0   -497.31826            0   -497.31826    -174.5766 
Loop time of 0.00658488 on 1 procs for 1 steps with 6 atoms
run 1 pre no post no
Step Temp E_pair E_mol TotEng Press 
    1886            0   -497.31826            0   -497.31826    -174.5766 
    1887            0   -489.13877            0   -489.13877   -178.84349 
Loop time of 0.00553012 on 1 procs for 1 steps with 6 atoms
run 1 pre no post no
Step Temp E_pair E_mol TotEng Press 
    1887            0   -489.13877            0   -489.13877   -178.84349 
    1888            0   -487.22955            0   -487.22955   -155.13643 
Loop time of 0.00550294 on 1 procs for 1 steps with 6 atoms
run 1 pre no post no
Step Temp E_pair E_mol TotEng Press 
    1888            0   -487.22955            0   -487.22955   -155.13643 
    1889            0   -469.58451            0   -469.58451    312.04307 
Loop time of 0.00580215 on 1 procs for 1 steps with 6 atoms
run 1 pre no post no
Step Temp E_pair E_mol TotEng Press 
    1889            0   -469.58451            0   -469.58451    312.04307 
    1890            0   -481.36235            0   -481.36235    604.45676 
Loop time of 0.00590491 on 1 procs for 1 steps with 6 atoms
run 1 pre no post no
Step Temp E_pair E_mol TotEng Press 
    1890            0   -481.36235            0   -481.36235    604.45676 
    1891            0   -471.91501            0   -471.91501    353.93698 
Loop time of 0.00626802 on 1 procs for 1 steps with 6 atoms
run 1 pre no post no
Step Temp E_pair E_mol TotEng Press 
    1891            0   -471.91501            0   -471.91501    353.93698 
    1892            0   -485.91215            0   -485.91215    964.49039 
Loop time of 0.00613213 on 1 procs for 1 steps with 6 atoms
run 1 pre no post no
Step Temp E_pair E_mol TotEng Press 
    1892            0   -485.91215            0   -485.91215    964.49039 
    1893            0    -468.7629            0    -468.7629    1156.5187 
Loop time of 0.00694704 on 1 procs for 1 steps with 6 atoms
run 1 pre no post no
Step Temp E_pair E_mol TotEng Press 
    1893            0    -468.7629            0    -468.7629    1156.5187 
    1894            0   -498.67117            0   -498.67117   -178.90914 
Loop time of 0.00632906 on 1 procs for 1 steps with 6 atoms
run 1 pre no post no
Step Temp E_pair E_mol TotEng Press 
    1894            0   -498.67117            0   -498.67117   -178.90914 
    1895            0   -495.63943            0   -495.63943   -141.41237 
Loop time of 0.00627017 on 1 procs for 1 steps with 6 atoms
run 1 pre no post no
Step Temp E_pair E_mol TotEng Press 
    1895            0   -495.63943            0   -495.63943   -141.41237 
    1896            0   -474.23564            0   -474.23564    434.62003 
Loop time of 0.00590301 on 1 procs for 1 steps with 6 atoms
run 1 pre no post no
Step Temp E_pair E_mol TotEng Press 
    1896            0   -474.23564            0   -474.23564    434.62003 
    1897            0   -487.50563            0   -487.50563    633.49761 
Loop time of 0.00823784 on 1 procs for 1 steps with 6 atoms
run 1 pre no post no
Step Temp E_pair E_mol TotEng Press 
    1897            0   -487.50563            0   -487.50563    633.49761 
    1898            0   -488.94278            0   -488.94278    178.10292 
Loop time of 0.00648117 on 1 procs for 1 steps with 6 atoms
run 1 pre no post no
Step Temp E_pair E_mol TotEng Press 
    1898            0   -488.94278            0   -488.94278    178.10292 
    1899            0    -491.5292            0    -491.5292   -177.11826 
Loop time of 0.00530291 on 1 procs for 1 steps with 6 atoms
run 1 pre no post no
Step Temp E_pair E_mol TotEng Press 
    1899            0    -491.5292            0    -491.5292   -177.11826 
    1900            0   -475.92495            0   -475.92495    342.64911 
Loop time of 0.00519204 on 1 procs for 1 steps with 6 atoms
run 1 pre no post no
Step Temp E_pair E_mol TotEng Press 
    1900            0   -475.92495            0   -475.92495    342.64911 
    1901            0   -390.96671            0   -390.96671    838.81687 
Loop time of 0.00683403 on 1 procs for 1 steps with 6 atoms
run 1 pre no post no
Step Temp E_pair E_mol TotEng Press 
    1901            0   -390.96671            0   -390.96671    838.81687 
    1902            0   -468.10099            0   -468.10099    1559.4447 
Loop time of 0.00679803 on 1 procs for 1 steps with 6 atoms
run 1 pre no post no
Step Temp E_pair E_mol TotEng Press 
    1902            0   -468.10099            0   -468.10099    1559.4447 
    1903            0   -492.36774            0   -492.36774   -188.67581 
Loop time of 0.00580716 on 1 procs for 1 steps with 6 atoms
run 1 pre no post no
Step Temp E_pair E_mol TotEng Press 
    1903            0   -492.36774            0   -492.36774   -188.67581 
    1904            0    -379.6867            0    -379.6867    915.09759 
Loop time of 0.00635481 on 1 procs for 1 steps with 6 atoms
run 1 pre no post no
Step Temp E_pair E_mol TotEng Press 
    1904            0    -379.6867            0    -379.6867    915.09759 
    1905            0   -450.30693            0   -450.30693    2284.6056 
Loop time of 0.00748587 on 1 procs for 1 steps with 6 atoms
run 1 pre no post no
Step Temp E_pair E_mol TotEng Press 
    1905            0   -450.30693            0   -450.30693    2284.6056 
    1906            0    -478.5869            0    -478.5869    1235.5193 
Loop time of 0.00652194 on 1 procs for 1 steps with 6 atoms
run 1 pre no post no
Step Temp E_pair E_mol TotEng Press 
    1906            0    -478.5869            0    -478.5869    1235.5193 
    1907            0   -350.01307            0   -350.01307    1876.1925 
Loop time of 0.00683498 on 1 procs for 1 steps with 6 atoms
run 1 pre no post no
Step Temp E_pair E_mol TotEng Press 
    1907            0   -350.01307            0   -350.01307    1876.1925 
    1908            0   -491.74505            0   -491.74505    339.66726 
Loop time of 0.00674915 on 1 procs for 1 steps with 6 atoms
run 1 pre no post no
Step Temp E_pair E_mol TotEng Press 
    1908            0   -491.74505            0   -491.74505    339.66726 
    1909            0    -459.4565            0    -459.4565    1739.4434 
Loop time of 0.00709414 on 1 procs for 1 steps with 6 atoms
run 1 pre no post no
Step Temp E_pair E_mol TotEng Press 
    1909            0    -459.4565            0    -459.4565    1739.4434 
    1910            0   -350.08676            0   -350.08676    1793.5526 
Loop time of 0.00692296 on 1 procs for 1 steps with 6 atoms
run 1 pre no post no
Step Temp E_pair E_mol TotEng Press 
    1910            0   -350.08676            0   -350.08676    1793.5526 
    1911            0   -490.66936            0   -490.66936    187.61047 
Loop time of 0.00611401 on 1 procs for 1 steps with 6 atoms
run 1 pre no post no
Step Temp E_pair E_mol TotEng Press 
    1911            0   -490.66936            0   -490.66936    187.61047 
    1912            0   -497.73719            0   -497.73719    33.753258 
Loop time of 0.00567102 on 1 procs for 1 steps with 6 atoms
run 1 pre no post no
Step Temp E_pair E_mol TotEng Press 
    1912            0   -497.73719            0   -497.73719    33.753258 
    1913            0   -496.88637            0   -496.88637   -92.967764 
Loop time of 0.00609303 on 1 procs for 1 steps with 6 atoms
run 1 pre no post no
Step Temp E_pair E_mol TotEng Press 
    1913            0   -496.88637            0   -496.88637   -92.967764 
    1914            0   -494.51612            0   -494.51612    65.455235 
Loop time of 0.00588107 on 1 procs for 1 steps with 6 atoms
run 1 pre no post no
Step Temp E_pair E_mol TotEng Press 
    1914            0   -494.51612            0   -494.51612    65.455235 
    1915            0    -484.4549            0    -484.4549    20.515737 
Loop time of 0.00589395 on 1 procs for 1 steps with 6 atoms
run 1 pre no post no
Step Temp E_pair E_mol TotEng Press 
    1915            0    -484.4549            0    -484.4549    20.515737 
    1916            0   -446.99516            0   -446.99516    2163.4194 
Loop time of 0.006212 on 1 procs for 1 steps with 6 atoms
run 1 pre no post no
Step Temp E_pair E_mol TotEng Press 
    1916            0   -446.99516            0   -446.99516    2163.4194 
    1917            0   -499.15145            0   -499.15145   -50.488709 
Loop time of 0.00525188 on 1 procs for 1 steps with 6 atoms
run 1 pre no post no
Step Temp E_pair E_mol TotEng Press 
    1917            0   -499.15145            0   -499.15145   -50.488709 
    1918            0   -490.14382            0   -490.14382    121.81257 
Loop time of 0.00683093 on 1 procs for 1 steps with 6 atoms
run 1 pre no post no
Step Temp E_pair E_mol TotEng Press 
    1918            0   -490.14382            0   -490.14382    121.81257 
    1919            0   -466.71717            0   -466.71717    1127.9669 
Loop time of 0.00648999 on 1 procs for 1 steps with 6 atoms
run 1 pre no post no
Step Temp E_pair E_mol TotEng Press 
    1919            0   -466.71717            0   -466.71717    1127.9669 
    1920            0    -479.8193            0    -479.8193    926.01139 
Loop time of 0.00509787 on 1 procs for 1 steps with 6 atoms
run 1 pre no post no
Step Temp E_pair E_mol TotEng Press 
    1920            0    -479.8193            0    -479.8193    926.01139 
    1921            0   -476.82737            0   -476.82737    588.04075 
Loop time of 0.00567102 on 1 procs for 1 steps with 6 atoms
run 1 pre no post no
Step Temp E_pair E_mol TotEng Press 
    1921            0   -476.82737            0   -476.82737    588.04075 
    1922            0   -480.41925            0   -480.41925    1223.8011 
Loop time of 0.00628495 on 1 procs for 1 steps with 6 atoms
run 1 pre no post no
Step Temp E_pair E_mol TotEng Press 
    1922            0   -480.41925            0   -480.41925    1223.8011 
    1923            0   -497.50362            0   -497.50362    -153.1899 
Loop time of 0.00536084 on 1 procs for 1 steps with 6 atoms
run 1 pre no post no
Step Temp E_pair E_mol TotEng Press 
    1923            0   -497.50362            0   -497.50362    -153.1899 
    1924            0   -479.19041            0   -479.19041    61.940225 
Loop time of 0.00585604 on 1 procs for 1 steps with 6 atoms
run 1 pre no post no
Step Temp E_pair E_mol TotEng Press 
    1924            0   -479.19041            0   -479.19041    61.940225 
    1925            0   -480.68034            0   -480.68034    171.22152 
Loop time of 0.00567198 on 1 procs for 1 steps with 6 atoms
run 1 pre no post no
Step Temp E_pair E_mol TotEng Press 
    1925            0   -480.68034            0   -480.68034    171.22152 
    1926            0   -486.64042            0   -486.64042   -75.996853 
Loop time of 0.00581789 on 1 procs for 1 steps with 6 atoms

Please see the log.cite file for references relevant to this simulation

